/*--------------------------------*- C++ -*----------------------------------*\
| =========                 |                                                 |
| \\      /  F ield         | OpenFOAM: The Open Source CFD Toolbox           |
|  \\    /   O peration     | Version:  4.1                                   |
|   \\  /    A nd           | Web:      www.OpenFOAM.org                      |
|    \\/     M anipulation  |                                                 |
\*---------------------------------------------------------------------------*/
FoamFile
{
    version     2.0;
    format      ascii;
    class       volScalarField;
    location    "30000";
    object      ccx;
}
// * * * * * * * * * * * * * * * * * * * * * * * * * * * * * * * * * * * * * //

dimensions      [0 1 0 0 0 0 0];

internalField   nonuniform List<scalar> 
21000
(
0.0343146337555863
0.102942020212648
0.171460583130584
0.239325437891812
0.305359726728276
0.36823650122166
0.42760918673135
0.484120965125129
0.538576957301056
0.591679503520338
0.644030622647103
0.696182611599647
0.748598245812787
0.80147413986488
0.85477773238313
0.908440570797695
0.962392454395966
1.01656098945994
1.07087517228312
1.12533693264863
1.1800952594573
1.23538489183188
1.2914531340677
1.3485559908632
1.40696440953721
1.46691788733051
1.52852356030946
1.59175536483824
1.65651421607626
1.72263296413891
1.78987380498798
1.85792369468356
1.92641007194201
1.99503173584201
2.06366100335342
2.13229027086459
2.20091953837559
2.26954880588676
2.33817807339811
2.40680734090928
2.47543660842018
2.54406587593142
2.61269514344286
2.68132441095397
2.74995367846514
2.81858294597669
2.88721221348786
2.95584148099866
3.02447074850953
3.09310001602074
3.16172928353221
3.23035855104335
3.29898781855453
3.36761708606606
3.43624635357723
3.50487562108804
3.57350488859922
3.64213415611054
3.71076342362171
3.77939269113273
3.8480219586439
3.91665122615501
3.98528049366619
4.05390976117742
4.12253902868859
4.19116829619982
4.259797563711
4.32842683122211
4.39705609873328
4.46568536624445
4.53431463375563
4.6029439012668
4.67157316877797
4.74020243628908
4.80883170380026
4.87746097131149
4.94609023882266
5.0147195063339
5.08334877384507
5.15197804135618
5.22060730886735
5.28923657637838
5.35786584388955
5.42649511140087
5.49512437891204
5.56375364642285
5.63238291393403
5.70101218144556
5.76964144895673
5.83827071646787
5.90689998397935
5.97552925149055
6.04415851900142
6.11278778651223
6.1814170540234
6.25004632153494
6.31867558904611
6.38730485655722
6.45593412406867
6.5245633915799
6.5931926590908
6.66182192660198
6.73045119411332
6.7990804616245
6.86770972913549
6.93633899664667
7.00496826415807
7.07358992805807
7.14207630531653
7.21012619501211
7.27736703586117
7.34348578392383
7.40824463516184
7.47147643969062
7.53308211266956
7.59303559046286
7.65144400913687
7.70854686593237
7.76461510816819
7.81990474054277
7.87466306735143
7.92912482771694
7.98343901054036
8.03760754560379
8.09155942920247
8.14522226761736
8.19852586013604
8.25140175418846
8.30381738839968
8.35596937735256
8.40832049647987
8.46142304269956
8.5158790348757
8.57239081326794
8.63176349877795
8.69464027327192
8.76067456210815
8.82853941686917
8.8970579797871
8.96568536624441
0.034307136753914
0.102919549260538
0.171423592320117
0.239276228516666
0.30530464661806
0.368186426144006
0.427576150548057
0.484114801603494
0.538604737731282
0.591745884765619
0.644138187961702
0.696332039877741
0.748788621845064
0.801703876531604
0.855045355864041
0.908744843456452
0.962732380787183
1.01693582389755
1.07128441395276
1.12578007173111
1.18057126951551
1.23589193596354
1.29198852137104
1.34911614618652
1.40754482166198
1.46751321819288
1.52912810432776
1.59236350654631
1.65712068181732
1.72323305719089
1.79046364967897
1.858500496339
1.92697232807142
1.99557901696409
2.06419329047215
2.13280756397998
2.20142183748763
2.27003611099546
2.33865038450346
2.40726465801129
2.47587893151885
2.54449320502674
2.61310747853484
2.6817217520426
2.75033602555043
2.81895029905862
2.88756457256645
2.95617884607391
3.02479311958144
3.0934073930893
3.16202166659743
3.23063594010523
3.29925021361305
3.36786448712124
3.43647876062907
3.50509303413654
3.57370730764436
3.64232158115234
3.71093585466017
3.77955012816785
3.84816440167567
3.91677867518344
3.98539294869127
4.05400722219915
4.12262149570698
4.19123576921487
4.2598500427227
4.32846431623047
4.3970785897383
4.46569286324613
4.53430713675395
4.60292141026178
4.67153568376961
4.74014995727738
4.80876423078521
4.87737850429309
4.94599277780092
5.01460705130881
5.08322132481664
5.15183559832441
5.22044987183224
5.28906414533992
5.35767841884774
5.42629269235572
5.49490696586354
5.56352123937102
5.63213551287884
5.70074978638703
5.76936405989486
5.83797833340265
5.90659260691079
5.97520688041865
6.04382115392617
6.11243542743363
6.18104970094146
6.24966397444966
6.31827824795748
6.38689252146524
6.45550679497334
6.52412106848124
6.59273534198879
6.66134961549663
6.72996388900463
6.79857816251246
6.86719243602011
6.93580670952793
7.00442098303599
7.07302767192867
7.14149950366108
7.20953635032111
7.27676694280919
7.34287931818276
7.40763649345377
7.47087189567232
7.53248678180719
7.59245517833809
7.65088385381355
7.70801147862904
7.76410806403653
7.81942873048456
7.87421992826896
7.92871558604731
7.98306417610274
8.03726761921258
8.0912551565437
8.14495464413646
8.19829612346932
8.25121137815619
8.30366796012157
8.35586181203796
8.40825411523458
8.46139526226933
8.51588519839734
8.57242384945122
8.63181357385561
8.69469535338214
8.7607237714833
8.82857640767961
8.89708045073924
8.96569286324609
0.0342994028084476
0.102896368110784
0.171385432409764
0.239225463871439
0.305247825691145
0.368134768434662
0.42754207025151
0.484108443283156
0.538633396163843
0.59181436399384
0.644249152885068
0.696486190849947
0.748985014734351
0.801940874057827
0.855321437626667
0.909058732703278
0.963083050611362
1.01732250504524
1.07170658978102
1.12623721630795
1.18106232396316
1.23641500532381
1.29254082969484
1.34969400532753
1.40814357782191
1.46812736459553
1.52975175506433
1.59299086867245
1.65774631500176
1.72385211627185
1.79107213649488
1.85909552789116
1.92755235438478
1.99614359498314
2.06474240060027
2.13334120621716
2.20194001183388
2.27053881745078
2.33913762306785
2.40773642868474
2.47633523430137
2.54493403991833
2.61353284553549
2.68213165115232
2.75073045676921
2.81932926238648
2.88792806800337
2.9565268736199
3.0251256792365
3.09372448485343
3.16232329047063
3.23092209608749
3.29952090170438
3.36811970732163
3.43671851293853
3.50531731855506
3.57391612417196
3.642514929789
3.7111137354059
3.77971254102264
3.84831134663954
3.91691015225637
3.98550895787326
4.05410776349022
4.12270656910711
4.19130537472407
4.25990418034096
4.3285029859578
4.3971017915747
4.46570059719159
4.53429940280849
4.60289820842538
4.67149701404228
4.74009581965911
4.80869462527601
4.87729343089296
4.94589223650986
5.01449104212682
5.08308984774371
5.15168865336054
5.22028745897744
5.28888626459419
5.35748507021108
5.42608387582812
5.49468268144502
5.56328148706156
5.63188029267845
5.70047909829571
5.7690779039126
5.83767670952946
5.90627551514666
5.97487432076359
6.04347312638018
6.11207193199671
6.1806707376136
6.24926954323086
6.31786834884776
6.38646715446459
6.45506596008175
6.52366476569871
6.59226357131534
6.66086237693224
6.72946118254931
6.7980599881662
6.86665879378292
6.93525759939982
7.00385640501694
7.07244764561531
7.14090447210892
7.2089278635052
7.27614788372823
7.34225368499832
7.40700913132763
7.47024824493574
7.53187263540454
7.59185642217816
7.65030599467255
7.70745917030523
7.76358499467626
7.8189376760369
7.87376278369212
7.92829341021905
7.98267749495506
8.03691694938839
8.09094126729688
8.14467856237383
8.19805912594309
8.25101498526689
8.30351380914937
8.35575084711459
8.40818563600636
8.46136660383677
8.51589155671766
8.57245792974778
8.63186523156495
8.69475217430905
8.76077453612851
8.82861456758999
8.89710363188898
8.96570059719155
0.0342914244305542
0.102872454317551
0.171346066449958
0.239173094801659
0.305189208928713
0.368081478074279
0.427506912842395
0.484101884007503
0.538662960347964
0.591885007511621
0.644363624861691
0.696645213777031
0.749187614643769
0.802185361923756
0.855606244996127
0.909382542471932
0.963444803416544
1.01772140732043
1.07214210855449
1.12670880902558
1.1815688982813
1.23695460639339
1.29311059383158
1.35029012781911
1.40876125778392
1.46876092120709
1.5303951163902
1.59363805868082
1.65839172141909
1.72449074080529
1.79169985462197
1.8597093654977
1.92815071251054
1.99672601656936
2.06530886543069
2.1338917142918
2.20247456315274
2.27105741201385
2.33964026087513
2.40822310973624
2.47680595859708
2.54538880745825
2.61397165631962
2.68255450518067
2.75113735404178
2.81972020290325
2.88830305176436
2.9568859006251
3.02546874948591
3.09405159834705
3.16263444720846
3.23121729606954
3.29980014493065
3.36838299379211
3.43696584265322
3.50554869151397
3.57413154037508
3.64271438923634
3.71129723809744
3.7798800869584
3.84846293581951
3.91704578468056
3.98562863354167
4.05421148240283
4.12279433126394
4.19137718012511
4.25996002898622
4.32854287784727
4.39712572670838
4.46570857556949
4.53429142443059
4.6028742732917
4.67145712215281
4.74003997101386
4.80862281987497
4.87720566873613
4.94578851759724
5.01437136645842
5.08295421531952
5.15153706418057
5.22011991304168
5.28870276190264
5.35728561076375
5.42586845962501
5.49445130848611
5.56303415734687
5.63161700620797
5.70019985506944
5.76878270393055
5.83736555279162
5.90594840165303
5.97453125051417
6.04311409937498
6.11169694823572
6.18027979709683
6.24886264595831
6.31744549481941
6.38602834368046
6.45461119254184
6.52319404140301
6.59177689026385
6.66035973912496
6.72894258798624
6.79752543684735
6.86610828570828
6.93469113456939
7.00327398343073
7.07184928748954
7.14029063450238
7.20830014537811
7.27550925919479
7.34160827858099
7.40636194131926
7.46960488360987
7.53123907879298
7.59123874221615
7.64970987218097
7.70688940616849
7.76304539360667
7.81843110171877
7.87329119097449
7.92785789144558
7.98227859267986
8.03655519658321
8.09061745752823
8.14439375500437
8.19781463807715
8.25081238535747
8.30335478622229
8.35563637513797
8.40811499248859
8.46133703965264
8.51589811599333
8.57249308715691
8.63191852192533
8.69481079107149
8.76082690519831
8.82865393354978
8.89712754568222
8.96570857556944
0.034283193894923
0.102847784725583
0.171305456323377
0.239119070599237
0.305128739573062
0.368026503462634
0.427470644278463
0.48409511742533
0.538693458909881
0.591957883721184
0.644481714731816
0.696809262637125
0.749396617746548
0.802437576862332
0.855900053746373
0.909716586302034
0.963817989482232
1.0181329169741
1.0725913919795
1.12719530652038
1.18209148297864
1.2375112616605
1.29369836547595
1.35090509087828
1.40939845963858
1.46941450149084
1.53105881126185
1.59430570323454
1.65905752600486
1.72514954915953
1.79234741186775
1.86034260352578
1.92876798182744
1.99732684567044
2.06589323346051
2.13445962125036
2.20302600904003
2.27159239682987
2.34015878461989
2.40872517240974
2.47729156019931
2.54585794798923
2.61442433577934
2.68299072356912
2.75155711135897
2.82012349914918
2.88868988693902
2.95725627472851
3.02582266251805
3.09438905030794
3.16295543809808
3.23152182588789
3.30008821367774
3.36865460146794
3.43722098925779
3.50578737704728
3.57435376483712
3.64292015262711
3.71148654041696
3.78005292820666
3.8486193159965
3.91718570378628
3.98575209157613
4.05431847936604
4.12288486715589
4.19145125494579
4.26001764273564
4.32858403052542
4.39715041831527
4.46571680610512
4.53428319389496
4.60284958168481
4.67141596947465
4.73998235726444
4.80854874505429
4.87711513284419
4.94568152063404
5.01424790842395
5.0828142962138
5.15138068400358
5.21994707179342
5.28851345958312
5.35707984737297
5.42564623516296
5.4942126229528
5.5627790107423
5.63134539853214
5.69991178632234
5.76847817411219
5.837044561902
5.90561094969216
5.97417733748203
6.04274372527157
6.11131011306106
6.1798765008509
6.24844288864111
6.31700927643096
6.38557566422074
6.45414205201086
6.52270843980076
6.59127482759034
6.65984121538019
6.72840760317021
6.79697399096005
6.86554037874973
6.93410676653957
7.00267315432965
7.07123201817265
7.13965739647431
7.20765258813233
7.27485045084055
7.34094247399521
7.40569429676554
7.46894118873822
7.53058549850924
7.59060154036149
7.64909490912179
7.70630163452411
7.76248873833956
7.81790851702143
7.87280469347969
7.92740860802057
7.98186708302619
8.03618201051752
8.09028341369812
8.14409994625412
8.19756242313858
8.25060338225468
8.30319073736219
8.35551828526785
8.40804211627901
8.46130654109074
8.51590488257549
8.57252935572084
8.63197349653698
8.69487126042713
8.76088092940074
8.82869454367635
8.89715221527418
8.96571680610508
0.0342747032320843
0.102822335447751
0.171263562708029
0.239063338953479
0.305066359072649
0.367969791368669
0.42743322944155
0.484088136984722
0.538724921380551
0.592033063186583
0.644603536838766
0.69697849627481
0.749612226415949
0.80269776308844
0.856203148367219
0.910061187642675
0.964202970158577
1.01855743246475
1.07305487509052
1.12769717986082
1.18263058406655
1.23808551012668
1.29430471375913
1.35153948996519
1.41005580037927
1.47008873829865
1.53174348232437
1.59499444880251
1.65974437344576
1.72582917924641
1.79301543524952
1.86099585512751
1.92940476002546
1.99794666405766
2.06649607052206
2.13504547698623
2.20359488345022
2.27214428991439
2.34069369637873
2.4092431028429
2.4777925093068
2.54634191577103
2.61489132223547
2.68344072869957
2.75199013516374
2.82053954162827
2.88908894809244
2.95763835455625
3.02618776102012
3.09473716748432
3.16328657394879
3.23183598041292
3.30038538687709
3.36893479334161
3.43748419980578
3.5060336062696
3.57458301273376
3.64313241919808
3.71168182566225
3.78023123212627
3.84878063859044
3.91733004505454
3.98587945151871
4.05442885798294
4.12297826444711
4.19152767091133
4.2600770773755
4.32862648383962
4.39717589030379
4.46572529676796
4.53427470323212
4.60282410969629
4.67137351616046
4.73992292262457
4.80847232908874
4.87702173555297
4.94557114201714
5.01412054848137
5.08266995494554
5.15121936140964
5.21976876787381
5.28831817433783
5.356867580802
5.42541698726631
5.49396639373048
5.5625158001943
5.63106520665847
5.69961461312299
5.76816401958716
5.8367134260513
5.90526283251576
5.97381223897997
6.04236164544384
6.11091105190764
6.17946045837181
6.24800986483634
6.31655927130051
6.38510867776461
6.45365808422905
6.52220749069328
6.59075689715718
6.65930630362135
6.72785571008569
6.79640511654986
6.86495452301386
6.93350392947803
7.00205333594242
7.07059523997462
7.13900414487258
7.20698456475056
7.27417082075367
7.34025562655432
7.40500555119756
7.46825651767571
7.52991126170142
7.58994419962081
7.64846051003487
7.70569528624094
7.76191448987339
7.81736941593352
7.87230282013925
7.92694512490954
7.98144256753554
8.03579702984119
8.08993881235748
8.14379685163327
8.19730223691246
8.25038777358528
8.30302150372451
8.3553964631609
8.40796693681362
8.46127507862005
8.5159118630161
8.57256677055775
8.63203020863096
8.69493364092755
8.76093666104648
8.82873643729171
8.89717766455201
8.96572529676791
0.0342659442206934
0.102796081842053
0.17122034503909
0.239005845900416
0.305002007025423
0.367911286878949
0.427394632103589
0.484080935926677
0.538757378224253
0.592110618702026
0.644729209139652
0.697153078554927
0.749834649421237
0.802966172535389
0.856515822339803
0.910416680165585
0.964600118216256
1.01899536484424
1.07353300667135
1.1282149150036
1.18318672354899
1.23867790782876
1.29493022579978
1.35219393935964
1.41073391649954
1.47078428448385
1.53244979253376
1.59570496228534
1.66045292880383
1.72653028913903
1.79370457160144
1.86166975283369
1.93006166368461
1.9985860718892
2.06711796033081
2.1356498487722
2.20418173721341
2.2727136256548
2.34124551409636
2.40977740253774
2.47830929097887
2.54684117942032
2.61537306786197
2.68390495630329
2.75243684474468
2.82096873318643
2.88950062162781
2.95803251006884
3.02656439850993
3.09509628695135
3.16362817539303
3.23216006383439
3.30069195227577
3.36922384071751
3.4377557291589
3.50628761759993
3.57481950604132
3.64335139448285
3.71188328292424
3.78041517136548
3.84894705980686
3.91747894824819
3.98601083668958
4.05454272513102
4.12307461357241
4.19160650201385
4.26013839045524
4.32867027889657
4.39720216733796
4.46573405577935
4.53426594422073
4.60279783266212
4.67132972110351
4.73986160954484
4.80839349798622
4.87692538642767
4.94545727486905
5.0139891633105
5.08252105175189
5.15105294019321
5.2195848286346
5.28811671707584
5.35664860551723
5.42518049395876
5.49371238240015
5.56224427084118
5.63077615928257
5.69930804772431
5.7678399361657
5.83637182460705
5.90490371304873
5.97343560149016
6.04196748993124
6.11049937837227
6.17903126681365
6.2475631552554
6.31609504369679
6.38462693213812
6.45315882057977
6.52169070902122
6.59022259746234
6.65875448590372
6.72728637434528
6.79581826278667
6.86435015122789
6.93288203966927
7.00141392811089
7.06993833631547
7.13833024716639
7.20629542839864
7.27346971086105
7.33954707119625
7.40429503771474
7.46755020746631
7.52921571551624
7.58926608350053
7.64780606064042
7.70506977420029
7.76132209217131
7.81681327645108
7.87178508499646
7.92646699332872
7.98100463515606
8.0353998817835
8.08958331983457
8.14348417766069
8.19703382746551
8.25016535057998
8.3028469214444
8.35527079086001
8.40788938129817
8.46124262177635
8.51591906407414
8.57260536789573
8.63208871312067
8.69499799297478
8.76099415409954
8.82877965496066
8.89720391815772
8.9657340557793
0.03425690837957
0.102768998487602
0.171175761469731
0.238946535770559
0.30493562112028
0.367850933344498
0.427354814891514
0.484073507278583
0.53879086086808
0.592190625362365
0.644858853319584
0.697333178521236
0.750064102129809
0.803243065098841
0.856838378420758
0.910783408088238
0.965009818207425
1.01944713815579
1.0740262496897
1.12874901326417
1.183760439928
1.23928902837724
1.29557550727264
1.35286907275588
1.41143346460951
1.47150181353324
1.53317842579886
1.5964379316611
1.66118387816046
1.7272535577089
1.79441548820087
1.86236494916626
1.93073932887189
1.99924568829121
2.06775950505058
2.13627332180972
2.20478713856869
2.27330095532783
2.34181477208714
2.41032858884628
2.47884240560515
2.54735622236436
2.61587003912376
2.68438385588283
2.75289767264197
2.82141148940147
2.88992530616061
2.95843912291939
3.02695293967823
3.09546675643741
3.16398057319685
3.23249438995595
3.30100820671509
3.36952202347458
3.43803584023372
3.50654965699251
3.57506347375165
3.64357729051094
3.71209110727008
3.78060492402907
3.84911874078821
3.91763255754729
3.98614637430643
4.05466019106563
4.12317400782477
4.19168782458396
4.2602016413431
4.32871545810219
4.39722927486133
4.46574309162047
4.53425690837961
4.60277072513875
4.67128454189789
4.73979835865697
4.80831217541611
4.87682599217531
4.94533980893445
5.01385362569365
5.08236744245279
5.15088125921187
5.21939507597101
5.28790889273001
5.35642270948915
5.42493652624843
5.49345034300756
5.56196415976636
5.63047797652549
5.69899179328499
5.76750561004413
5.83601942680323
5.90453324356267
5.97304706032185
6.04156087708069
6.11007469383947
6.17858851059861
6.24710232735811
6.31561614411725
6.38412996087632
6.45264377763573
6.52115759439493
6.58967141115381
6.65818522791295
6.72669904467226
6.7952128614314
6.86372667819037
6.9322404949495
7.00075431170887
7.0692606711282
7.13763505083383
7.20558451179921
7.27274644229118
7.33881612183962
7.40356206833898
7.46682157420122
7.52849818646683
7.58856653539055
7.64713092724419
7.70442449272743
7.76071097162283
7.81623956007206
7.8712509867359
7.92597375031037
7.98055286184449
8.03499018179233
8.08921659191192
8.14316162157973
8.19675693490205
8.24993589787141
8.3026668214781
8.35514114668009
8.40780937463784
8.46120913913253
8.51592649272223
8.5726451851078
8.63214906665512
8.69506437887992
8.7610534642294
8.82882423853002
8.89723100151216
8.96574309162043
0.0342475869594859
0.102741059160125
0.171129768830534
0.238885351134973
0.304867137076757
0.367788672325929
0.427313739251094
0.484065843847457
0.538825401732365
0.592273160635791
0.644992594909502
0.697518970560086
0.750300806715734
0.803528708888465
0.857171128935367
0.911161726507144
0.965432466838077
1.01991318984461
1.07453508174549
1.12929999180217
1.18435228872511
1.23991946351176
1.29624118299492
1.35356554387624
1.41215512207161
1.4722420202194
1.53393008764352
1.5971940666515
1.66193792928067
1.72799968528327
1.79514887341448
1.86308211727008
1.9314384117572
1.99992615195735
2.06842132587655
2.13691649979552
2.20541167371432
2.27390684763329
2.34240202155243
2.4108971954714
2.47939236939011
2.54788754330915
2.61638271722838
2.68487789114729
2.75337306506626
2.82186823898559
2.89036341290456
2.95885858682318
3.02735376074185
3.09584893466086
3.16434410858013
3.23283928249906
3.30133445641803
3.36982963033735
3.43832480425633
3.50681997817495
3.57531515209392
3.64381032601304
3.71230549993201
3.78080067385084
3.84929584776981
3.91779102168872
3.98628619560769
4.05478136952672
4.12327654344569
4.19177171736472
4.2602668912837
4.32876206520261
4.39725723912158
4.46575241304055
4.53424758695953
4.6027427608785
4.67123793479747
4.73973310871638
4.80822828263535
4.87672345655438
4.94521863047336
5.01371380439239
5.08220897831136
5.15070415223027
5.21919932614924
5.28769450006807
5.35618967398704
5.42468484790616
5.49318002182513
5.56167519574375
5.63017036966272
5.69866554358205
5.76716071750102
5.83565589141996
5.90415106533923
5.97264623925823
6.0411414131769
6.10963658709552
6.17813176101449
6.24662693493382
6.31512210885279
6.3836172827717
6.45211245669093
6.52060763060997
6.58910280452868
6.65759797844765
6.72609315236679
6.79458832628576
6.86308350020456
6.93157867412353
7.00007384804273
7.06856158824289
7.13691788273
7.2048511265856
7.27200031471681
7.33806207071941
7.40280593334858
7.46606991235655
7.52775797978067
7.58784487792846
7.64643445612382
7.70375881700515
7.76008053648831
7.81564771127496
7.8707000081979
7.92546491825457
7.98008681015568
8.03456753316168
8.08883827349301
8.14282887106512
8.19647129111242
8.24969919328548
8.30248102943925
8.35500740509017
8.40772683936442
8.46117459826823
8.51593415615335
8.5726862607482
8.6322113276737
8.69513286292344
8.76111464886499
8.82887023116921
8.89725894083964
8.96575241304051
0.0342379709346939
0.102712236806541
0.171082322587708
0.238822232749606
0.304796488582878
0.367724443536875
0.427271365409584
0.484057938212984
0.538861034262079
0.592358304438854
0.645130563407705
0.697710634569275
0.750544992374881
0.80382338048754
0.857514396079972
0.911552001741685
0.965868473352156
1.02039397118142
1.07505999553326
1.12986838412222
1.18496284301921
1.240569823674
1.29692789753136
1.3542840271041
1.41289958765643
1.47300562127327
1.53470550588982
1.59797409940906
1.66271581229845
1.72876939432326
1.79590543736478
1.86382195156478
1.93215958924868
2.00062812176717
2.06910406363678
2.13758000550616
2.20605594737538
2.27453188924477
2.34300783111433
2.41148377298371
2.47995971485284
2.54843565672229
2.61691159859194
2.68538754046127
2.75386348233065
2.8223394242004
2.89081536606979
2.95929130793882
3.02776724980791
3.09624319167733
3.16471913354701
3.23319507541636
3.30167101728575
3.37014695915549
3.43862290102488
3.50709884289392
3.57557478476331
3.64405072663284
3.71252666850223
3.78100261037147
3.84947855224086
3.91795449411018
3.98643043597957
4.05490637784902
4.1233823197184
4.19185826158785
4.26033420345724
4.32881014532657
4.39728608719596
4.46576202906535
4.53423797093473
4.60271391280412
4.67118985467351
4.73966579654284
4.80814173841222
4.87661768028167
4.94509362215106
5.01356956402051
5.08204550588989
5.15052144775922
5.21899738962861
5.28747333149786
5.35594927336724
5.42442521523677
5.49290115710616
5.5613770989752
5.62985304084459
5.69832898271433
5.76680492458371
5.83528086645307
5.90375680832275
5.97223275019217
6.04070869206126
6.10918463393029
6.17766057579968
6.24613651766943
6.31461245953881
6.38308840140814
6.45156434327779
6.52004028514724
6.58851622701637
6.65699216888575
6.72546811075531
6.7939440526247
6.86241999449392
6.9308959363633
6.99937187823292
7.06784041075141
7.1361780484353
7.2040945626353
7.27123060567682
7.33728418770163
7.40202590059102
7.46529449411026
7.52699437872681
7.58710041234364
7.64571597289597
7.70307210246871
7.75943017632607
7.81503715698086
7.87013161587785
7.9249400044668
7.97960602881886
8.03413152664761
8.08844799825847
8.14248560392051
8.19617661951335
8.24945500762633
8.30228936543006
8.35486943659197
8.40764169556134
8.46113896573851
8.51594206178782
8.57272863458973
8.63227555646275
8.69520351141732
8.76117776725035
8.82891767741206
8.89728776319323
8.9657620290653
0.0342280509941881
0.102682503518708
0.17103337679997
0.238757119498134
0.304723607230735
0.367658184785611
0.427227652337222
0.484049782720329
0.538897792959216
0.592446139213839
0.645272892405249
0.697908356132236
0.750796895546819
0.80412736522076
0.857868512233962
0.911954611688811
0.966318259927829
1.02088994769946
1.07560149931928
1.13045474059043
1.18559269400152
1.24124073859883
1.29763631581835
1.35502521813689
1.4136675822194
1.47379335607822
1.53550543136274
1.59877878522606
1.66351828042372
1.72956343012338
1.79668591261765
1.86458516841709
1.93290355964815
2.00135227742409
2.06980837941269
2.13826448140107
2.20672058338927
2.27517668537765
2.3436327873662
2.41208888935457
2.48054499134268
2.54900109333112
2.61745719531976
2.68591329730808
2.75436939929645
2.82282550128518
2.89128160327356
2.95973770526158
3.02819380724966
3.09664990923807
3.16510601122674
3.23356211321508
3.30201821520346
3.37047431719218
3.43893041918056
3.50738652116859
3.57584262315696
3.64429872514548
3.71275482713386
3.78121092912209
3.84966703111047
3.91812313309878
3.98657923508716
4.05503533707559
4.12349143906397
4.1919475410524
4.26040364304078
4.3288597450291
4.39731584701747
4.46577194900585
4.53422805099423
4.6026841529826
4.67114025497098
4.7395963569593
4.80805245894767
4.87650856093611
4.94496466292448
5.01342076491292
5.0818768669013
5.15033296888961
5.21878907087799
5.28724517286622
5.3557012748546
5.42415737684312
5.49261347883149
5.56106958081952
5.6295256828079
5.69798178479662
5.766437886785
5.83489398877334
5.90335009076201
5.97180619275042
6.0402622947385
6.10871839672652
6.1771744987149
6.24563060070363
6.314086702692
6.38254280468032
6.45099890666896
6.5194550086574
6.58791111064551
6.65636721263389
6.72482331462243
6.79327941661081
6.86173551859902
6.93019162058739
6.99864772257599
7.06709644035194
7.13541483158299
7.20331408738243
7.27043656987669
7.33648171957636
7.40122121477402
7.46449456863734
7.52620664392185
7.58633241778067
7.64497478186318
7.70236368418173
7.75875926140124
7.81440730599854
7.86954525940964
7.92439850068078
7.97911005230082
8.03368174007193
8.08804538831134
8.14213148776652
8.19587263478012
8.24920310445438
8.3020916438671
8.35472710759442
8.40755386078637
8.46110220704137
8.51595021728047
8.57277234766209
8.63234181521402
8.69527639276946
8.76124288050183
8.82896662319977
8.89731749648107
8.96577194900581
0.0342178175326883
0.102651830506461
0.170982884074104
0.238689948332513
0.304648422450497
0.367589831914811
0.427182557707504
0.484041369472733
0.538935713416184
0.592536750008587
0.645419719715291
0.698112326697719
0.751056760143783
0.804440957430505
0.858233820281593
0.91236994618895
0.966782262086274
1.02140159964522
1.07616011743367
1.13105962896739
1.186242451548
1.24193285792404
1.29836712380773
1.35578983465977
1.41445984939874
1.47460598738601
1.53633063861719
1.59960890326587
1.66434611067159
1.73038256153319
1.79749105489174
1.86537250683447
1.93367104332722
2.00209932011357
2.07053495517917
2.13897059024455
2.20740622530976
2.27584186037513
2.34427749544068
2.41271313050605
2.48114876557117
2.54958440063661
2.61802003570225
2.68645567076756
2.75489130583294
2.82332694089867
2.89176257596404
2.96019821102907
3.02863384609415
3.09706948115956
3.16550511622523
3.23394075129057
3.30237638635595
3.37081202142167
3.43924765648705
3.50768329155208
3.57611892661746
3.64455456168298
3.71299019674835
3.78142583181359
3.84986146687896
3.91829710194428
3.98673273700965
4.05516837207509
4.12360400714047
4.1920396422059
4.26047527727128
4.3289109123366
4.39734654740197
4.46578218246735
4.53421781753273
4.6026534525981
4.67108908766348
4.7395247227288
4.80796035779418
4.87639599285961
4.94483162792499
5.01326726299042
5.0817028980558
5.15013853312112
5.21857416818649
5.28700980325173
5.35544543831711
5.42388107338262
5.492316708448
5.56075234351303
5.62918797857841
5.69762361364413
5.76605924870951
5.83449488377485
5.90293051884052
5.97136615390593
6.03980178897102
6.10823742403604
6.17667305910142
6.24510869416714
6.31354432923252
6.38197996429783
6.45041559936347
6.51885123442891
6.58728686949403
6.65572250455941
6.72415813962495
6.79259377469032
6.86102940975553
6.92946504482091
6.99790067988651
7.06632895667286
7.13462749316561
7.20250894510833
7.26961743846688
7.33565388932848
7.40039109673421
7.46366936138289
7.52539401261406
7.58554015060133
7.6442101653403
7.70163287619234
7.75806714207603
7.81375754845207
7.86894037103268
7.92383988256639
7.97859840035506
8.03321773791349
8.0876300538112
8.14176617971888
8.19555904257037
8.24894323985741
8.30188767330163
8.35458028028438
8.4074632499916
8.46106428658441
8.51595863052806
8.57281744229182
8.63241016808482
8.6953515775497
8.76131005166745
8.82901711592565
8.89734816949331
8.96578218246731
0.03420726064134
0.1026201880698
0.170930795518962
0.238620654212112
0.304570861441896
0.367519318739478
0.427136037856191
0.484032690323856
0.538974832350283
0.592630224558846
0.645571187506525
0.698322743765169
0.751324837786816
0.80476446076185
0.858610673944008
0.912798407403486
0.967260929113386
1.02192942244348
1.07673639077813
1.13168363495787
1.18691274480987
1.2426468518194
1.29912102913107
1.35657861704048
1.41527715633553
1.47544430205527
1.53718192668803
1.60046525731741
1.66520010461485
1.73122758170174