/*--------------------------------*- C++ -*----------------------------------*\
| =========                 |                                                 |
| \\      /  F ield         | OpenFOAM: The Open Source CFD Toolbox           |
|  \\    /   O peration     | Version:  3.0.1                                 |
|   \\  /    A nd           | Web:      www.OpenFOAM.org                      |
|    \\/     M anipulation  |                                                 |
\*---------------------------------------------------------------------------*/
FoamFile
{
    version     2.0;
    format      ascii;
    class       volTensorField;
    location    "30000";
    object      grad(Usqr);
}
// * * * * * * * * * * * * * * * * * * * * * * * * * * * * * * * * * * * * * //

dimensions      [0 0 -1 0 0 0 0];

internalField   nonuniform List<tensor> 
21000
(
(0.000247994180616195 4.58869108555435e-07 0 0.646766203602301 9.91812116404962e-07 0 0 0 0)
(0.00660406680718119 1.34723180660395e-05 3.90016563066684e-42 0.68202546966192 7.34862619323532e-05 3.38684873763846e-44 0 0 0)
(0.0353307630871264 0.000168413094002202 1.21980198455149e-41 0.45759364518674 0.00200318729428897 7.98051507843881e-41 -1.83976288711146e-23 -1.38597744390658e-25 -9.15335263593297e-62)
(0.00376842714267389 9.31719014141073e-05 8.64296515012636e-34 0.0270196805716853 0.000360928180326898 3.0180159200212e-33 -5.44467750044312e-20 -7.26129935444497e-22 -6.07094848701301e-51)
(0.0132403790672472 0.00196029479093523 1.81382511335495e-33 0.036181555516382 0.00519219668876196 5.19722293949111e-33 0 0 0)
(0.0439539084380009 0.0115320655683239 -2.82054725468268e-34 0.0856795048458128 0.0222891063011882 -4.37877879447753e-36 0 0 0)
(0.0291837872621686 0.0115361338228242 2.63718618507579e-32 0.0462467434721409 0.0181017911271359 4.11406283550401e-32 -4.34363599898525e-19 -1.70005799712405e-19 -3.86335030252301e-49)
(0.0159441011829482 0.00830327781006669 1.2478905159822e-33 0.0220348240430295 0.0114033532602291 -2.94573319568772e-36 -2.12724501999184e-24 -9.16487030568098e-25 -4.4895953787533e-62)
(0.0108237446276981 0.00672761011567467 1.49500205127961e-32 0.0136859468581018 0.00847992425404881 1.70225862649516e-32 1.38328981315151e-19 8.57105854289578e-20 1.72281477160798e-49)
(0.00803827301994224 0.00552735973924428 1.45022261142525e-31 0.00966475323070381 0.00663467210828772 1.74892527028882e-31 -9.95927156138099e-20 -6.8369712517244e-20 -1.80208448806263e-48)
(0.00598890759190964 0.00429286854455412 4.99428425310048e-33 0.00704830559042732 0.0050489410776085 -1.56650952119501e-34 1.07973570612049e-24 8.07146825866163e-25 1.70993647769258e-52)
(0.00432552495355432 0.00308342531839723 9.95955045983621e-32 0.00510628717699761 0.00364078650686136 1.1656487334708e-31 -5.30142435841655e-20 -3.77989348800504e-20 -1.21079794972897e-48)
(0.00330778129961097 0.00227222454819883 3.32814634476407e-32 0.00398154168812433 0.00273709092144901 4.51265841760841e-32 -2.26978593127036e-24 -1.59145880152695e-24 -1.78182188423314e-52)
(0.00276277252160475 0.00183083061327841 5.77503906781709e-32 0.00339083570470422 0.00224865526617821 6.81120676601702e-32 3.29404958546277e-24 2.16887932188227e-24 2.12643803975254e-52)
(0.00252682646486021 0.00162592002961887 5.58875265169737e-32 0.0031521872261946 0.00202955358080122 7.19788346647759e-32 -3.19328143328539e-20 -2.05596700477759e-20 -7.28441284060953e-49)
(0.00257351113209474 0.0016202179138594 3.92333846182539e-32 0.00325183983116595 0.00204833966260729 5.23119745035999e-32 0 0 0)
(0.00290676910867164 0.0017994659833072 4.47711261101209e-32 0.00370904352249887 0.00229716893535417 5.42306571461419e-32 0 0 0)
(0.00353914614002341 0.00216428280381633 2.16694413024182e-32 0.0045482921638938 0.00278257333325581 2.44530239135631e-32 1.01854166345255e-23 6.18251303378009e-24 4.88345921704172e-52)
(0.00446499627828396 0.00270238463983048 1.72944023633681e-32 0.00576768149763109 0.00349283950041399 2.56009041126774e-32 -2.27230847679128e-23 -1.36465235708256e-23 -7.18645558097879e-52)
(0.00551723118463192 0.00327115657788191 -2.47994571130724e-33 0.00719555920244972 0.00427090695793029 1.88604192924095e-34 1.24541313958649e-23 7.4178446091204e-24 2.37802560027261e-52)
(0.0065685116007572 0.00372422466149896 3.04155970128249e-33 0.00875187285582508 0.004971225751074 -2.5385336743315e-34 1.87685323502255e-23 1.01822175851483e-23 2.77523684846378e-52)
(0.00745142751240194 0.00393156582053122 6.83775163185491e-32 0.0102794775877504 0.00543825082359778 9.46712036736772e-32 1.00158783949128e-19 5.2980080358863e-20 9.22090594961937e-49)
(0.00795457411171508 0.00378573963390401 -2.95010242396773e-33 0.0115374619812674 0.00551147745639438 2.5546665928765e-34 4.31237192439805e-23 2.02792439306476e-23 2.63010321321752e-52)
(0.00791829118306201 0.00327399855429064 8.03827501644102e-39 0.0123000812222005 0.00511226680536046 3.20143587053325e-38 -2.18079675586831e-23 -9.6982594602509e-24 -1.32288951699223e-57)
(0.00730906682089022 0.00250604692587976 4.69023067450279e-32 0.0124431327621297 0.00429793123068945 7.81392889347075e-32 0 0 0)
(0.00638550959381369 0.00172328763687479 1.68598760904124e-32 0.0122324374211596 0.00333507255959718 3.01105204894623e-32 0 0 0)
(0.0053500394165722 0.00108337158173137 3.63519965204905e-33 0.0118029533960117 0.00242319306773184 1.00739474362793e-32 -3.64355789607768e-23 -6.70212268014196e-24 -1.6874141068137e-52)
(0.00424010330524315 0.000606840855409426 1.16164129651829e-28 0.0110870903581863 0.0016184482843652 3.02564638427194e-28 3.52699075543361e-23 6.48770388967593e-24 1.63342922634137e-52)
(0.00322608461245035 0.000299675919470968 2.63410859964235e-32 0.010417724704595 0.000997327632894843 8.46143877384997e-32 0 0 0)
(0.00232423031985159 0.000122726273928386 9.55694713248809e-29 0.00984499717951149 0.000548791172955432 4.03938611493463e-28 0 0 0)
(0.00167875150370672 3.94824395387821e-05 7.26143252706248e-35 0.0104949877667204 0.000274277106115301 -5.57731179513552e-36 2.62169301382873e-23 4.67929855281756e-25 1.13557128015353e-53)
(0.000994812318844606 5.24934394106609e-06 2.45555057713485e-29 0.0111330851475605 9.2626018613338e-05 -2.02986296594595e-30 -6.67787615082945e-24 -4.14676262626609e-25 1.91664197155789e-48)
(0.000574618861273759 -2.37199325324377e-07 3.46551273535845e-29 0.0214082787970479 3.01882920584686e-05 8.23403908679536e-28 -1.2336229037822e-17 -1.73815981042169e-20 -4.73760912748726e-43)
(0.000535283734276988 -4.44749147196016e-08 -2.45776377587614e-29 0.0465666398060653 1.7955810203111e-05 8.08157338207663e-28 -2.69097369922592e-17 -1.0357646675585e-20 -4.67281088793664e-43)
(0.000674243220175739 5.01134776181184e-09 -2.52711027976657e-29 0.0759025816611013 1.7013867754999e-05 1.97915195311079e-30 1.39537128636116e-22 1.80336324776034e-27 6.9182823767351e-58)
(0.000800117751557861 4.10645463856649e-09 -1.04070625630292e-41 0.112634704045159 1.52121488424433e-05 4.54907995415751e-38 -1.39537128636115e-22 -1.80336324776032e-27 -6.91828237673504e-58)
(0.000868996620716003 3.91973573846807e-09 -4.42727423731897e-39 0.15171922880037 1.31133959895602e-05 4.58281993450654e-38 2.69766837601001e-22 2.42959261482512e-27 3.45585970665301e-58)
(0.000908445044320135 2.9439919842704e-09 -4.42925244215999e-39 0.192989409733343 1.08925072139264e-05 3.18047168182018e-40 7.08798244726007e-23 2.29699789105013e-28 -3.45584620234336e-58)
(0.000912916829820259 2.53138034635403e-09 1.77342893144957e-38 0.233978615807905 8.95896144466872e-06 -1.19588253984083e-39 7.1228727659766e-23 1.97506492819543e-28 1.38368668706702e-57)
(0.000900077858190267 1.93472813127066e-09 9.64790751009851e-45 0.274288185030036 7.29734433757618e-06 2.76983276069011e-37 -8.93977768977198e-22 -5.86455154814118e-27 -2.76737682774945e-57)
(0.000871474540315568 1.54915257813686e-09 -1.32882397406646e-38 0.312946491222531 5.95041704919188e-06 9.50485075546767e-38 -6.79952660164879e-23 -1.20869901273767e-28 1.03679150022005e-57)
(0.000834631782306208 1.09245834262071e-09 -2.02060798165824e-44 0.349738748926016 4.84535606025681e-06 1.40139028163948e-37 5.50097645255448e-22 3.1286225526452e-27 3.46897290040087e-58)
(0.000790445965223162 6.85643503842609e-10 5.93734334401932e-41 0.384285680195771 3.94682407964087e-06 9.39731683640061e-38 0 0 0)
(0.000741341793093693 2.37507907843138e-10 4.41724420144488e-44 0.416449125862993 3.20272603840968e-06 4.62831720631415e-38 -7.34733361771261e-22 -3.28588695351609e-27 -3.51531667542102e-58)
(0.000687438698006675 -2.05813375845617e-10 1.36516519277928e-38 0.446028615398232 2.58272091326446e-06 -7.32212659431912e-40 -5.36361935761068e-23 1.60582261361453e-29 -1.0651460960164e-57)
(0.000629411486609216 -6.64538136085671e-10 2.52715717779338e-29 0.47289441792294 2.05940180143896e-06 -1.31945890448296e-30 1.62584783329214e-21 6.48780803712091e-27 1.97176987814515e-48)
(0.000567306901333592 -1.11309590011755e-09 2.59482163768437e-29 0.496895226763622 1.6163439759196e-06 7.95369600719377e-28 2.86281945379994e-16 9.31051441533245e-22 4.57998414392011e-43)
(0.0005015025236057 -1.54730457175949e-09 -2.52715717734333e-29 0.517907951954302 1.241187582623e-06 7.96496880040062e-28 2.99054669293087e-16 7.1698290684579e-22 4.60138407532231e-43)
(0.000432317511770395 -1.94864043418935e-09 -2.5948216390432e-29 0.535814092103688 9.26604092982796e-07 1.24188860580831e-30 -9.20870250778928e-22 -3.01040624897768e-27 -2.02456388010349e-48)
(0.000360308864370978 -2.30699838982998e-09 6.96297377267641e-41 0.550521717123857 6.67558656436037e-07 4.81067748571325e-38 -9.82713527648593e-22 -2.6783675254461e-27 -7.30502067259213e-58)
(0.00028611057978759 -2.60975541325348e-09 -3.49238867847944e-39 0.561962097983859 4.60898716639287e-07 4.03360416276122e-28 9.82713527659554e-22 2.67836752547597e-27 7.30502067267361e-58)
(0.000210502810746983 -2.84862964938441e-09 2.65222370166644e-29 0.570099864337429 3.04207863315241e-07 4.1239071229562e-28 -5.10730456366735e-22 -1.12624332260612e-27 -1.03467541406692e-48)
(0.000134339361774196 -3.0153316523907e-09 2.71537154192246e-29 0.574933714003295 1.95420577808583e-07 8.28900483765825e-28 -3.31323211567777e-16 -1.12064942177623e-22 -4.77506877529929e-43)
(5.85329691824797e-05 -3.10598312332271e-09 -2.65222370201376e-29 0.57650017258489 1.32334922626682e-07 8.340516078391e-28 -3.32788725194244e-16 -7.67856131014031e-23 -4.81620522248166e-43)
(-1.59839775343702e-05 -3.12006704821813e-09 -2.71537154204194e-29 0.574871377619743 1.12392681249541e-07 9.45152083733358e-31 -5.18254718323639e-22 -8.87440920885703e-28 -1.05931040897719e-48)
(-8.82486159435495e-05 -3.05882611473002e-09 -1.21113640369586e-39 0.570157033251699 1.32511697457777e-07 3.95218032042745e-41 0 0 0)
(-0.000157342975739303 -2.92713453505453e-09 2.65147702850446e-61 0.562505576312958 1.88992420217039e-07 -7.49865987566076e-63 0 0 0)
(-0.000222436565278357 -2.73333501669706e-09 2.67789231337115e-61 0.552098236576873 2.77561469514252e-07 8.21731961979391e-60 3.09882699860572e-32 1.55743127146185e-38 4.61611754358752e-91)
(-0.00028279307596198 -2.48682302247467e-09 -2.65147702851612e-61 0.539145470961257 3.93471804616643e-07 8.31938662394165e-60 -3.02611831028255e-32 -2.2081550007608e-38 -4.66559681996341e-91)
(-0.000337793058305729 -2.19824758471747e-09 -2.67789231338249e-61 0.52388208534482 5.31638484811451e-07 6.40823202406498e-63 0 0 0)
(-0.000386943858751417 -1.87894662207701e-09 3.27449940328721e-40 0.506562003792247 6.8678335476309e-07 2.700339225543e-38 0 0 0)
(-0.000429886621558183 -1.54043314709373e-09 3.27660789652297e-40 0.48745283121773 8.53594392061897e-07 6.44753636684295e-38 2.21648335711051e-22 5.47002384543841e-29 1.27784652031332e-59)
(-0.000466398153640225 -1.19385844747426e-09 6.72693791526096e-42 0.46683031685754 1.02687876267036e-06 1.0219831040529e-38 -2.21648335710244e-22 -5.47002384541851e-29 -1.27784652030867e-59)
(-0.000496387572881822 -8.49582750786422e-10 6.77538573405556e-42 0.444973001773195 1.20170449928606e-06 3.43354146267717e-39 2.02868420588844e-22 1.48412633961567e-29 1.30418389581387e-59)
(-0.000519889085693903 -5.16819895836361e-10 3.03060664721778e-29 0.422157147684412 1.37352276494481e-06 -3.29649184276129e-31 -2.02868420588817e-22 -1.48412633961547e-29 -1.3041838958137e-59)
(-0.000537051041560059 -2.03390662946272e-10 7.77218346308749e-32 0.398652126394634 1.53826378294134e-06 9.52255242633458e-28 2.29878813422701e-16 8.87262182586261e-22 5.49066545980797e-43)
(-0.000548122686611983 8.44241069171674e-11 -2.25174214617913e-30 0.374716344000458 1.69240889070854e-06 2.33233138543619e-30 1.06406123525503e-17 4.77084124066648e-23 3.16449017677047e-46)
(-0.000553438931599231 3.4193758690492e-10 -7.77218349488264e-32 0.350593775572662 1.83303210364997e-06 8.81372306942466e-28 -1.92357619213502e-16 -1.00561407517961e-21 -4.83593347885849e-43)
(-0.000553404277944444 5.66025095287592e-10 -2.80543243263372e-29 0.326511154308867 1.95781796212966e-06 1.22062495298006e-31 4.01912741178192e-23 2.27737595198674e-30 1.36805577589856e-49)
(-0.000548476589273039 7.55026239125387e-10 -2.1760248047623e-41 0.302675808134749 2.06505499155624e-06 4.7338694400793e-44 0 0 0)
(-0.000539151175034109 9.08594218661662e-10 2.25834662096995e-41 0.279274138857176 2.15360949728171e-06 4.91295780761276e-44 0 0 0)
(-0.000525945852116911 1.02751117124919e-09 2.26076253924274e-41 0.256470702717542 2.22288277222764e-06 2.32092772155136e-40 2.96241095005974e-23 1.8160745489059e-29 2.20372207730239e-61)
(-0.000509387275168232 1.11348337364391e-09 -2.25834662097188e-41 0.234407841899505 2.27275688674185e-06 2.32144330085077e-40 -2.96241095149923e-23 -1.81607456138321e-29 -2.20372207743254e-61)
(-0.000489999013165178 1.1689367092474e-09 -2.26076253924459e-41 0.213205805541782 2.30353223469466e-06 -1.4754640665689e-43 0 0 0)
(-0.000468291142980862 1.1968057399548e-09 0 0.192963280864967 2.31586217321124e-06 0 0 0 0)
(-0.00044475201577913 1.20036477854323e-09 0 0.173758286921216 2.31068317675365e-06 8.15559799450883e-39 0 0 0)
(-0.000419841264122922 1.18302818590435e-09 0 0.155649313954702 2.28915442088667e-06 8.19396211613432e-39 0 0 0)
(-0.000393985360827355 1.14826815726997e-09 0 0.138676719154169 2.2525858288576e-06 0 0 0 0)
(-0.000367573389990583 1.09939626249412e-09 0 0.122864185607362 2.20239875547483e-06 3.37891192350971e-38 0 0 0)
(-0.000340956616099104 1.03966151241517e-09 0 0.108220399015927 2.14004765308864e-06 3.39452537991241e-38 0 0 0)
(-0.000314445294549057 9.71850490888879e-10 0 0.0947405353382951 2.06702529299907e-06 3.45496417189993e-38 0 0 0)
(-0.000288312650605815 8.98816671783169e-10 0 0.0824081207056015 1.98474280976673e-06 3.47049137415981e-38 0 0 0)
(-0.000262790490706932 8.22506730134596e-10 0 0.0711962393380399 1.89464125351554e-06 3.529104862693e-38 0 0 0)
(-0.000238079140575858 7.45487169121776e-10 0 0.0610696340599091 1.79793979586492e-06 3.54434446816654e-38 0 0 0)
(-0.000214337635507296 6.68506024098721e-10 3.61990247105055e-29 0.0519852325309026 1.69598352356512e-06 1.18124657671054e-30 0 0 0)
(-0.000191704031124999 5.94334182713995e-10 1.44756778811458e-28 0.0438948320173965 1.58966950689678e-06 1.18190615757575e-27 2.53432160468562e-17 9.1723371018821e-22 6.82397311150672e-43)
(-0.000170272132810857 5.21833436877196e-10 -5.84034607188914e-32 0.0367442548692182 1.48029898300195e-06 4.76022493393297e-27 4.2390058499741e-17 1.70762649913754e-21 5.49112677457685e-42)
(-0.0001501320176607 4.55139767586002e-10 -1.44756778810701e-28 0.0304775014925216 1.36829522021898e-06 1.19813661693368e-27 1.756100583244e-17 7.88807848670668e-22 6.90266415930266e-43)
(-0.000131318542909526 3.8975054564338e-10 -3.61406212424282e-29 0.025033196860119 1.255108194093e-06 -1.4152089056135e-30 0 0 0)
(-0.000113891672462319 3.3365082880787e-10 6.61155921939069e-39 0.0203520714607446 1.14046982351854e-06 2.18142121659754e-37 -4.40722701955257e-23 -1.50397533701766e-27 -1.03132655688264e-57)
(-9.78276697305603e-05 2.75464928319747e-10 7.32830789463782e-41 0.016368103144348 1.02638407028085e-06 2.19915995188954e-37 4.40722701950475e-23 1.50397533700135e-27 1.03132655687145e-57)
(-8.31777974815618e-05 2.3248850875231e-10 7.27543538032743e-41 0.0130230279994624 9.11500583927292e-07 2.21104829994361e-37 2.9949637434633e-23 1.54360750926226e-27 1.04272087035493e-57)
(-6.9849512182553e-05 1.78592018828588e-10 -6.67992109196879e-39 0.0102472314046326 7.9918262851401e-07 6.83466106437528e-38 -2.99496374343626e-23 -1.54360750924832e-27 -1.04272087034551e-57)
(-5.7912735626109e-05 1.52265721229469e-10 -6.68431357322675e-39 0.00798810298677886 6.86352853709961e-07 -3.34454532126858e-40 0 0 0)
(-4.71735914514687e-05 9.55392875862767e-11 6.81634215049935e-39 0.00617190480403327 5.79183984474429e-07 3.707181291617e-40 0 0 0)
(-3.77611796370215e-05 9.53173603859597e-11 2.73356071194855e-38 0.00475794756517637 4.71859596800212e-07 7.15687708908495e-38 -1.33543271736881e-23 -1.58431335544099e-27 -2.66464568747862e-57)
(-2.93005579314156e-05 2.04120243166258e-11 3.4726206528501e-41 0.00366620901002274 3.75856162913389e-07 2.80828854048976e-37 2.44225299239841e-23 3.17021932312586e-27 5.33200082605544e-57)
(-2.20524128940762e-05 6.95781711318989e-11 -2.04251803654347e-38 0.0028783786312242 2.81181189374061e-07 6.91946517599297e-38 -1.10682027503169e-23 -1.58590596768785e-27 -2.66735513858182e-57)
(-1.52765851353604e-05 -5.60351189603639e-11 6.10045966951808e-41 0.00230404305149368 2.0816138336894e-07 7.10078716449086e-38 8.15567342924663e-24 1.58696264046064e-27 1.07847619312065e-57)
(-9.54866262666191e-06 9.80958571291362e-11 5.90782436076795e-41 0.00196791606320224 1.41989883769691e-07 7.10249187744176e-38 -8.15567342939155e-24 -1.58696264048884e-27 -1.07847619313982e-57)
(-3.27821257172016e-06 -1.57317388174379e-10 2.10225306853556e-38 0.00175935616527479 1.12927615429798e-07 7.30288002307636e-38 7.1548790848893e-24 1.58234198482758e-27 2.72333159723903e-57)
(2.04173764617013e-06 2.40941926393643e-10 2.10735578418322e-38 0.00179514372851191 1.08238038538333e-07 2.88447526134592e-37 -1.44690611533588e-23 -3.18348303907326e-27 -7.0908904266931e-57)
(1.00757357367189e-05 -2.94463086877379e-10 -2.09119200671617e-38 0.00190596206690167 1.50352755363484e-07 2.86639000328598e-37 1.54145056705958e-23 3.17930714478109e-27 7.10350192931331e-57)
(1.64078713525785e-05 6.68223511764589e-10 -2.80430628395655e-38 0.00242915264594972 2.6923055999944e-07 7.01290827305257e-38 -8.10032360224537e-24 -1.57816609055949e-27 -2.73594309990902e-57)
(2.990097194493e-05 -4.31791907845463e-10 7.84762683614155e-41 0.00297585099177482 3.75890605398274e-07 2.12529017783561e-41 0 0 0)
(3.65604981844061e-05 2.22822466593928e-09 2.76101376445179e-44 0.00444787293503978 6.94041585449767e-07 7.29484750475414e-38 1.45660580075121e-23 1.77046655482814e-27 5.54057642985203e-58)
(5.66099133289405e-05 3.43897572358283e-08 2.45139481208809e-41 0.00562152602200426 6.70008941356528e-07 6.58465173544585e-37 4.41688877632364e-24 2.68320023513924e-27 1.91265762392793e-60)
(-1.43979708560772e-05 1.31225797446927e-06 -5.78739660037676e-37 0.00883412711184731 6.98368936877907e-07 5.32803962075718e-35 -1.10863883646679e-21 -7.71869618356379e-26 -6.57796868165411e-54)
(-0.000933312357744873 -1.28823157130202e-06 4.582473153826e-34 0.0120094996659926 7.28985149605793e-05 3.92408288317938e-35 5.94525291478043e-23 9.43853958665834e-25 7.17471314741304e-53)
(-0.0019723020830273 -4.04134504958685e-05 -7.55210808529004e-34 0.0123718437827662 0.000307944702148066 4.68329292042281e-33 -5.98458528787185e-23 -9.50098270990002e-25 -7.22217933571202e-53)
(-0.00290334810294406 -0.000153958145309189 -8.53722212422768e-33 0.0121284599108941 0.000691460853127361 4.17485410270641e-32 0 0 0)
(-0.00306310648068973 -0.000295493787365515 -1.81624774369678e-32 0.00958161620525908 0.000967108473610357 5.81791532106186e-32 3.96777200311206e-20 3.99990484741817e-21 2.40764691816045e-49)
(-0.00260589625018008 -0.000396399888138865 -1.49954815626275e-32 0.0065197726640172 0.00102565431769975 3.86185806631224e-32 0 0 0)
(-0.00152476647907672 -0.000335619454847149 -2.26868365896736e-32 0.00312190790267342 0.000713589161484968 5.33573156209816e-32 8.63474581187734e-24 1.53990688378159e-24 2.63262508096738e-52)
(-0.000457768483674974 -0.000138153826460531 -3.85956948236853e-33 0.000723438654074881 0.000238104930536677 1.57193605756956e-32 -8.95895019487891e-24 -1.59772497964836e-24 -2.73147090789091e-52)
(-0.000146317181239267 -1.58045811161929e-05 -9.05843223526169e-32 0.00021256005007422 2.70320618988893e-05 1.91116143565506e-31 1.96429603708821e-21 2.47197458100472e-22 1.73216488216106e-48)
(-0.00194622652295045 -0.000647511739165666 -1.47101836307281e-31 0.00315543123291593 0.00107438009530188 2.17152100085562e-31 -2.95789897382722e-20 -1.00591052623636e-20 -2.044015002817e-48)
(-0.00744424593370606 -0.00314459775422387 -1.8188715360905e-32 0.011169495910092 0.00475335720339103 -1.630793423718e-33 0 0 0)
(-0.0182740021556949 -0.00882262462941937 -3.54342713398504e-32 0.0259119028442686 0.0125530544907375 4.8824706930229e-32 0 0 0)
(-0.0358373151538591 -0.0188572592993655 -5.15233337122981e-33 0.0488899405023975 0.0257677487392571 -4.29756189777839e-34 0 0 0)
(-0.0614392162005671 -0.0340932937344632 4.19188596931419e-33 0.0817951777216633 0.0454168920326756 3.18752664261189e-34 0 0 0)
(-0.0946209821826592 -0.0540097980953567 -1.06438621637514e-31 0.124413856843966 0.0710295869073536 1.38371210993402e-31 -2.9911158676357e-22 -1.7104069244114e-22 -4.09865646571953e-52)
(-0.132787862893831 -0.0771897560464106 -7.51808600460397e-32 0.173216575993328 0.100714996363888 9.15003073440948e-32 3.08667950663005e-22 1.76505298865333e-22 4.22960509632589e-52)
(-0.176030495978869 -0.104550365549645 -2.01746807520413e-38 0.227294665949722 0.135051089100668 2.0669134301529e-38 0 0 0)
(-0.228181995220245 -0.139155203374889 -1.58306846207591e-38 0.290797697318722 0.1774365853926 2.00773792013407e-38 0 0 0)
(-0.291517722105028 -0.183559648482402 -6.37765367054174e-32 0.365663029946199 0.23039418675843 7.96383384784067e-32 0 0 0)
(-0.375735510173818 -0.245344972438227 -6.12107957704689e-32 0.462617197060266 0.302288970740015 7.50273895531614e-32 0 0 0)
(-0.490695763367571 -0.333741313852822 -5.60104157980239e-32 0.59185777576478 0.402786482221407 7.01956424841834e-32 6.09104241425963e-18 4.14513268992501e-18 7.21508391632742e-49)
(-0.677888453580306 -0.47844618453551 -2.31151413641525e-32 0.801847427836924 0.565856791933784 2.96027287814914e-32 0 0 0)
(-0.992210488350936 -0.70280213915284 -2.60692854731435e-32 1.17108721079852 0.828466748073677 2.73671811411822e-32 0 0 0)
(-1.48130743435738 -1.00371711579676 -2.24942231733602e-33 1.78726800852839 1.2080613085311 -4.56114706644243e-35 0 0 0)
(-2.22694819863987 -1.36711431552819 -4.08643349393142e-32 2.82303039320892 1.72621861002008 5.1309179697614e-32 -2.85338743411613e-17 -1.74478920545213e-17 -5.18550510708173e-49)
(-3.35844943347705 -1.74460467345695 1.29377914608493e-33 4.6288691222947 2.39005139152975 -7.33071691405456e-36 -4.41347842660337e-22 -1.82069736118459e-22 -5.6786045355576e-54)
(-4.90751583731944 -1.95057838324916 -1.19712398977144e-32 7.73810279828112 3.04773514413754 2.03405202226092e-32 4.39794810670454e-22 1.81429062035004e-22 5.65862244059945e-54)
(-6.30133972899915 -1.62733653703202 -1.54885713742893e-32 12.3493592385818 3.14824699869449 2.77413818205727e-32 5.48895263289348e-17 1.39917258963383e-17 1.23241503705096e-49)
(-5.32998882610105 -0.670014314251116 -9.87181248707622e-34 15.1511826349903 1.86093307776282 1.53280553646491e-35 1.54581730525144e-21 1.31308246935255e-22 4.75653370092325e-55)
(-2.2572534727377 -0.103089778630478 -5.68779296355831e-34 11.1260038403445 0.469460027362023 2.96174703517822e-33 -2.24107968189536e-17 -9.4544563664044e-19 -5.9666126970442e-51)
(-0.513296383977958 -0.00669018284388838 -7.03736840452996e-35 5.50783242217766 0.0522282263420634 2.60463008886466e-34 1.60829246273194e-22 9.68089001290794e-25 6.20136912860899e-56)
(-0.0431655624201136 -0.000213692227441099 -1.27101013159348e-35 1.88842773047434 0.00161439361731846 1.10423146891925e-37 -1.6062458518395e-22 -9.66857072682778e-25 -6.19347765992356e-56)
(-0.00472493949797828 -1.90449008013091e-06 -7.81161301462362e-43 0.767760342804131 4.14389213315057e-05 3.39878075348038e-45 0 0 0)
(-0.0045506833850887 1.13231374016817e-06 0 1.95216393654579 2.62669313971575e-05 0 0 0 0)
(0.0116177558340631 8.92261827247394e-05 4.62495331046979e-43 1.91843966697923 0.000119745823369323 4.35518972297043e-41 0 0 0)
(0.0805145983332633 0.000324458328243462 1.55201587754713e-34 1.32881895238131 0.00374427614347435 1.97033588019686e-36 0 0 0)
(0.0130613724808244 0.000436872331079401 1.41546372059638e-35 0.167175009233326 0.00144214103224382 9.21343349084672e-35 5.28043179709131e-20 7.04120910032454e-22 5.88580488116265e-51)
(0.0134973250295176 0.00378278204392425 -1.92266915237812e-33 0.0304045622497982 0.00764062878799073 -5.04054103117918e-33 0 0 0)
(0.0834892677779674 0.022976331793498 8.41235947045787e-33 0.161689397636793 0.0435019256689172 1.13155158861914e-32 0 0 0)
(0.0617806308748398 0.0240786414125563 2.76419238832353e-32 0.101847210365117 0.0385224749146165 4.34443740679481e-32 4.20883577669475e-19 1.64729927676705e-19 3.74343697839774e-49)
(0.0352112466262806 0.0179744129505791 -2.69576979462774e-33 0.0506796092567209 0.0252953344869133 -1.52745962295631e-35 0 0 0)
(0.0243106126698566 0.0148970407136156 -4.83866225680733e-34 0.0315353418124615 0.0190918546289096 -1.66577354478669e-32 3.18535939355657e-19 1.92855138551968e-19 -1.6681282054167e-49)
(0.0182384127649008 0.0123722162649383 2.40316060265407e-32 0.0223697803300135 0.0150853622198382 2.89176049238631e-32 4.23244815682174e-19 2.87771440578434e-19 3.78868181474811e-48)
(0.013730208769555 0.00967693628646353 -8.65926210011089e-33 0.0164717327138145 0.0115909816641481 1.42816471927591e-34 -9.4904121654248e-24 -7.06649503397508e-24 7.92152813765461e-53)
(0.0100674640402228 0.00703825061972432 -1.86594240948113e-32 0.0121038075078878 0.00847767327776706 -2.67234199059522e-32 5.1380838875109e-20 3.66343719312879e-20 1.1730108779498e-48)
(0.00781026704920875 0.00527291692750238 2.0203020466228e-33 0.00953358448002634 0.00645894378507452 1.32285985689869e-33 -1.37686295872463e-19 -9.36688604772312e-20 -4.62301287346853e-49)
(0.00660903199196108 0.00432523478968678 -1.43215609494932e-32 0.00818239289165196 0.0053716694164849 -1.87250938511272e-32 1.1687702387908e-19 7.6944886646846e-20 4.83159519341341e-49)
(0.00612202655443362 0.00391433620815682 2.6299167128212e-32 0.00765606625696986 0.00490711263174086 3.18764477577298e-32 3.09919102460485e-20 1.99538765631563e-20 7.06530285226899e-49)
(0.00629399420966108 0.0039667057096387 4.4427353725676e-32 0.00791600326185329 0.00499836142315557 5.53917083109435e-32 1.11394495406266e-19 7.02840336294604e-20 1.066736274581e-48)
(0.00713801701081651 0.00445349868415935 3.99372510508326e-32 0.00900844471934125 0.00562930914004059 5.79694752907568e-32 -1.26338008222936e-19 -7.87428449558873e-20 -1.10557450008991e-48)
(0.00867454412798558 0.00537215532280336 2.08242810722906e-32 0.010980694540741 0.00681013586727226 3.43001312391244e-32 -9.04784243567666e-23 -5.50488931382923e-23 -5.1943681532268e-58)
(0.0108669580705519 0.00666873155895084 -1.89364202634893e-32 0.0138152666732089 0.00849559142674967 -2.46603636947197e-32 -2.56053787851094e-23 -1.4533580753697e-23 -5.84734427037161e-59)
(0.0133400499258724 0.00800377800860323 3.37818146024354e-38 0.017140879051379 0.0103257029621423 3.55827045065636e-38 1.09771106915982e-22 6.57741177071631e-23 5.44414456180091e-58)
(0.0157917680093054 0.00902857995869752 5.47141003047216e-32 0.0207681538188482 0.011955513258949 6.34628131269819e-32 1.63915442365379e-22 8.97164097364348e-23 6.33423134491708e-52)
(0.017839073892989 0.00944201144432768 -1.85484265379687e-32 0.0243575458867026 0.0130259082739925 -2.59390487119922e-32 -9.74421204903971e-20 -5.15406211392031e-20 -8.95325026139072e-49)
(0.0190192572445452 0.00901495237931502 4.14371055444528e-32 0.0274024123002063 0.0131820094355455 7.13534518340549e-32 1.78556070806929e-22 8.9664068333467e-23 6.0032662355598e-52)
(0.018994990115075 0.00774804383249054 8.5523492736577e-33 0.0294345648085425 0.0122605140790733 -7.76456566726491e-34 0 0 0)
(0.0177265372296966 0.00592814772265351 5.00565428667734e-32 0.0302150731712273 0.0104096522616643 8.1091126975769e-32 -3.8743331091254e-19 -1.33419577335997e-19 -1.44000853847816e-48)
(0.0157410936909235 0.00409391137160625 -1.5212903420879e-33 0.0302683362991738 0.00820111233369214 1.36256025625448e-32 -1.87793137893846e-19 -5.08979017992047e-20 -1.87939952396477e-49)
(0.0134530239286785 0.00258671090173114 3.42057834905622e-28 0.029876074402795 0.0060706442540527 6.82130997233261e-28 -3.47163476316657e-22 -6.10804961109434e-23 -5.02910988876925e-48)
(0.0109697759372223 0.00145981212954786 4.45701280668724e-29 0.0289410420239211 0.00416627265552522 1.14615915734618e-28 -1.911790555812e-17 -2.75912595796506e-18 -1.96105152740517e-43)
(0.00864384248939997 0.000724578683707271 1.07531570251977e-29 0.028167748219588 0.00265842240996869 1.51372848928698e-31 4.74512847856212e-19 4.41176676900217e-20 -3.22186209786518e-45)
(0.00660127791509077 0.000298383397268189 9.60992268351343e-29 0.0278976443720274 0.00155098060711438 4.05292162976964e-28 1.8928767104208e-17 1.05148163631261e-18 4.02930975975407e-43)
(0.00501779530065245 8.96855311969538e-05 -4.09660076603058e-29 0.0306054241608804 0.000826583634723893 3.57891847840401e-30 -2.86580025164074e-22 -1.15219545763201e-23 -6.25093812461406e-48)
(0.00391088007813255 7.65421708881158e-06 5.75676196815861e-29 0.0354251251391417 0.00036753955547957 -4.76125926491878e-30 -4.56782480065577e-22 -1.76605660433219e-24 -8.71143432442859e-48)
(0.00394571492865935 -4.73322846319017e-06 5.22329633438787e-29 0.0640396547167694 0.000192626233441607 -2.3145903047095e-28 1.22879628653605e-17 1.71063061703728e-20 4.66896575493543e-43)