/*--------------------------------*- C++ -*----------------------------------*\
| =========                 |                                                 |
| \\      /  F ield         | OpenFOAM: The Open Source CFD Toolbox           |
|  \\    /   O peration     | Version:  3.0.1                                 |
|   \\  /    A nd           | Web:      www.OpenFOAM.org                      |
|    \\/     M anipulation  |                                                 |
\*---------------------------------------------------------------------------*/
FoamFile
{
    version     2.0;
    format      ascii;
    class       volTensorField;
    location    "30000";
    object      grad(U);
}
// * * * * * * * * * * * * * * * * * * * * * * * * * * * * * * * * * * * * * //

dimensions      [0 0 -1 0 0 0 0];

internalField   nonuniform List<tensor> 
21000
(
(0.00635649555975163 -0.00171952921473259 0 12.0837233655759 0.0123602494184063 0 0 0 0)
(0.114048431573547 -0.0110703682007656 5.33655471049352e-21 12.4866000557048 -0.133989493353692 4.63418872328335e-23 0 0 0)
(0.717029472183653 -0.059992293284018 2.68439134794819e-21 10.1828015801709 -0.699122059612308 1.09018715900222e-19 -1.25311929017956e-21 1.26806835154486e-22 1.04781445131031e-41)
(0.263222705465569 -0.0302377806837191 -1.74906945062363e-16 2.20009153139887 -0.286263323965016 -6.58706350811239e-16 -4.43511117019162e-18 5.77254455844198e-19 1.32546293405112e-33)
(-1.14177847139956 0.426996351671392 -3.03950521119314e-16 -3.03019760891388 1.11310222876857 -8.70939770427659e-16 0 0 0)
(-2.28315524782323 1.17311520355613 4.72573980095522e-17 -4.44991323222487 2.25507388167375 7.33681793746427e-19 0 0 0)
(-2.00600320481008 1.26737705167859 -1.50279330391803e-15 -3.18246057488136 1.98977675971315 -2.34439226673418e-15 2.98941071260845e-17 -1.86894555896781e-17 2.20152418966948e-32)
(-1.55381393392374 1.12481279794987 -1.07637474262358e-16 -2.14742750303444 1.54470341252117 3.00355575514872e-19 4.0084740330564e-22 -2.65785912913862e-22 2.54592410581955e-41)
(-1.31005136038915 1.03382608462921 -1.06194653722701e-15 -1.6565592268335 1.30273955350723 -1.47145195352554e-15 -1.67464392200208e-17 1.31697742028526e-17 -1.4868172695284e-32)
(-1.1322286172149 0.938798553168302 -2.28359005747298e-15 -1.36126172683095 1.12658765795035 -2.86623971210022e-15 1.4029635835708e-17 -1.16112348299737e-17 2.9512856007963e-32)
(-0.965643981819 0.817157771215203 1.34544495810451e-16 -1.13649913984841 0.96108381403343 -4.7889839035276e-18 -5.78045503816332e-22 4.95498311799254e-22 5.69996701578614e-36)
(-0.801525065409268 0.676410211003327 6.34912529810191e-16 -0.946112618392954 0.798692368203787 7.28675001444827e-16 9.82472276779635e-18 -8.29378288144671e-18 -7.58958989896617e-33)
(-0.680186102969885 0.563558355184954 1.4363663293747e-15 -0.818424421494897 0.678698551827688 2.17733898607854e-15 1.09583307930665e-21 -9.17166142716382e-22 -6.91343208836262e-36)
(-0.60412470679049 0.491792367911649 -2.84642719359597e-15 -0.740899388679683 0.603657479775436 -3.65186869546225e-15 -1.82774079902471e-21 1.48293763062426e-21 1.76349562616637e-37)
(-0.563050242233292 0.451787900265846 -4.47958269704448e-16 -0.701507984340044 0.56330554990456 -7.32328434349327e-16 7.10906471898972e-18 -5.70836851921179e-18 7.34020860920455e-33)
(-0.555461129712542 0.440861893346147 -1.8737458337919e-15 -0.700549242886989 0.55637898011421 -2.20366568866688e-15 0 0 0)
(-0.578589574486233 0.455268449295945 1.87644495409323e-15 -0.736468288046504 0.579831552472433 2.21185021886063e-15 0 0 0)
(-0.627079857751436 0.49024753417354 1.0129729378975e-15 -0.803580017157912 0.628559600546683 1.50821507792041e-15 -4.20515940226383e-21 3.27702468023568e-21 -2.76884555860103e-37)
(-0.692855092279543 0.53864441635035 -1.2985118652708e-15 -0.892311632314575 0.694174387198579 -1.4868953216869e-15 8.72663368882831e-21 -6.76676812986532e-21 1.47295411473885e-35)
(-0.756102320077822 0.581474958782086 1.43047787781977e-16 -0.983255234882515 0.757133591318754 -1.47383816184633e-17 -4.50730732291671e-21 3.47975168193577e-21 -1.40124424257894e-35)
(-0.805750955692235 0.605563606887863 -1.6430311954675e-16 -1.07066801075015 0.806440112992366 9.80700668974105e-18 -5.44565442635012e-21 4.0137198081845e-21 -1.47684439013589e-35)
(-0.833258799598042 0.603735109750145 5.31756817429401e-16 -1.14670410338217 0.833598689204999 7.48693811201058e-16 -1.11690318827877e-17 8.11783781526052e-18 7.31315880431096e-33)
(-0.830190990122782 0.570938769205402 1.53353321987425e-16 -1.20166032796915 0.830315507813978 -1.8892262947297e-17 -1.12554164156351e-20 7.72331181736886e-21 -1.40243855090572e-35)
(-0.792037391489742 0.507377898213557 1.32133391420354e-18 -1.22843170427879 0.792178370344504 1.52798454023213e-18 5.55249279395909e-21 -3.70304621187494e-21 1.34740963685292e-38)
(-0.719979264134713 0.419636351317551 1.50712428865326e-15 -1.22440950655745 0.720383986933863 2.40897078686276e-15 0 0 0)
(-0.629204180789099 0.324962740263539 1.18180000354645e-15 -1.2045208321015 0.630201523662067 2.07409484552263e-15 0 0 0)
(-0.532779907169376 0.237950502108362 3.14098179993749e-16 -1.17520647717664 0.534144219298144 8.80017659862561e-16 9.57011826899426e-21 -4.084084776941e-21 -1.45939550922359e-35)
(-0.432732785362471 0.161962437381592 5.67657008337952e-14 -1.13198018520403 0.434430310347306 1.48087861609577e-13 -9.26394464583236e-21 3.95342400574577e-21 1.41270555220051e-35)
(-0.337648740043386 0.101105735982749 -7.68725977158961e-16 -1.09145525398117 0.339699709126576 -2.47048600923588e-15 0 0 0)
(-0.249159194273246 0.0552373887717443 -4.03389678429951e-14 -1.05531914829942 0.250872875228621 -1.70497097931423e-13 0 0 0)
(-0.173991404648875 0.0243567521974104 -2.27125129717008e-17 -1.08717388597445 0.176902359729578 3.68565676619535e-18 -7.74003153548019e-21 9.80236977121425e-22 -3.65483262961e-36)
(-0.101098158656086 0.00468811091226695 1.33508085189742e-14 -1.11045203223705 0.100448392134378 -1.33510805764351e-15 3.07330579724354e-21 -7.63035166880741e-22 1.0453708762514e-33)
(-0.0481503825221564 -0.00123510074653488 1.28187519665567e-14 -1.55147464089313 0.0529641783674487 -6.7556439475661e-14 8.92056597356437e-16 -3.04204297621956e-17 3.96007230988024e-29)
(-0.0366312861706483 -0.000354408701909742 -1.33815435808626e-14 -2.31305194691294 0.0384172966675729 -5.86522109564375e-14 1.33985987972312e-15 -2.2181987059179e-17 3.32185028791608e-29)
(-0.0341850549393267 6.86835924256717e-05 -1.35686509361975e-14 -2.965445932849 0.0378870942757678 1.06080617982329e-15 -1.25218067374859e-20 4.52515608721405e-23 -1.95925584435075e-41)
(-0.0330864790908311 4.91392463399156e-05 2.10915197042248e-22 -3.62532047860478 0.0361601165692034 1.84454815862461e-18 1.25218067374858e-20 -4.52515608721401e-23 1.95925584435073e-41)
(-0.0303974316494627 4.43050830924021e-05 -1.79818669521255e-19 -4.2177575544921 0.0340395180044925 -1.83206798136443e-18 -1.74750270542347e-20 5.25423900860385e-23 -1.403317123336e-38)
(-0.0279055361024624 3.11254464194196e-05 1.79359761280609e-19 -4.76638782331742 0.0314297232438587 -1.51549762399013e-20 -2.17728030233971e-21 2.42850813335753e-24 1.39942294544975e-38)
(-0.0252049575654299 2.58054649188083e-05 3.59670773322139e-19 -5.25626962911045 0.028929744530342 -2.71056056631194e-20 -1.96657241871359e-21 2.01342594724357e-24 2.80626785741086e-38)
(-0.0227802358438495 1.9066250499882e-05 6.61029100780821e-22 -5.6983426517167 0.0265037999984005 1.0700913111664e-18 4.50151473276431e-20 -1.15456258945236e-22 -5.60990492220419e-38)
(-0.020508064993394 1.49405938728381e-05 -5.39426344070836e-19 -6.09314213373167 0.0243141251827722 2.65239840854192e-18 1.60010564875975e-21 -1.16571352097111e-24 4.20877903651856e-38)
(-0.0184758898198131 1.03538647442622e-05 -3.83682064737597e-22 -6.44727648018501 0.0222956869772686 -4.46656426249071e-18 -2.49963732009377e-20 5.96376482992357e-23 -1.40124779380558e-38)
(-0.016609850937567 6.43066872462356e-06 3.61152396482101e-19 -6.76362269233106 0.0204574235646119 2.58920057275537e-18 0 0 0)
(-0.0148997849211409 2.21478848327771e-06 5.67291144457531e-22 -7.04603195204131 0.0187421771727729 1.86113493695383e-18 2.88964057991118e-20 -6.11200369302562e-23 -1.41801274482677e-38)
(-0.0132981987615812 -1.91918278560885e-06 -5.44883479197107e-19 -7.29671528381241 0.0171267275669118 3.58561792852988e-20 1.0375685352865e-21 1.4974085644859e-25 4.25135737213639e-38)
(-0.0117828441653414 -6.22889757943101e-06 -1.35689570035991e-14 -7.51775680167418 0.0155737024390333 7.04715243253993e-16 -6.07872843301713e-20 1.2145459338408e-22 -1.05875063710532e-33)
(-0.0103265338054561 -1.05477812217176e-05 -1.37490467391565e-14 -7.71046650944252 0.0140631754479754 5.86750266793772e-14 -4.43538996457017e-15 8.08810825649274e-18 3.42554395789866e-29)
(-0.00891425759395261 -1.49087504809372e-05 1.35691397163184e-14 -7.87593156020533 0.0125752962594133 5.39072260370139e-14 -4.55431543753806e-15 7.2741936447556e-18 3.07105765217178e-29)
(-0.00753321003518763 -1.92089213172927e-05 1.37495951440068e-14 -8.01489376504304 0.0110997740124293 -6.56176099691115e-16 3.23545388554372e-20 -5.8498096264455e-23 1.072759232242e-33)
(-0.00617708807989806 -2.34154385413559e-05 -3.67938632956005e-19 -8.1279774147549 0.00962918673636877 1.91374807071005e-18 3.34242607162929e-20 -5.51724056627923e-23 -2.94116570284262e-42)
(-0.00484220390859621 -2.74598764771364e-05 -9.15895603917092e-20 -8.21569206157059 0.00816128994921294 -1.71055992029775e-13 -3.34242607166657e-20 5.51724056634076e-23 2.94116570287542e-42)
(-0.00352825422135894 -3.12985639573695e-05 1.39008438967603e-14 -8.27853240218414 0.00669615057952408 -1.73719283007339e-13 1.70386754843588e-20 -2.52939409219837e-23 -5.4229085865105e-34)
(-0.00223680826550564 -3.48657172014035e-05 1.40650758110252e-14 -8.31699914717922 0.00523671848310444 -5.88114857373453e-14 4.78733315605268e-15 -3.00585591383238e-18 3.42362767906177e-29)
(-0.000971024595030926 -3.81163398273511e-05 -1.39005653032071e-14 -8.33164322367631 0.00378747949127424 -5.54873778873798e-14 4.81446388349833e-15 -2.19612123853275e-18 3.17234732474904e-29)
(0.000264946128808235 -4.10164550628379e-05 -1.40651689178444e-14 -8.3230665279205 0.00235417958637589 4.89188900334631e-16 1.71638182389175e-20 -2.24467926966801e-23 -5.48708679955243e-34)
(0.00146563888541442 -4.35226333417113e-05 -9.39348725040372e-20 -8.2919531039288 0.000943816085662223 3.06528276566894e-21 0 0 0)
(0.00262533887508606 -4.56092333098778e-05 -1.38987023921339e-30 -8.23909598881701 -0.000435827446898873 3.93070129709665e-32 0 0 0)
(0.00373859433023045 -4.7274304564547e-05 1.39677635803702e-30 -8.16537907134891 -0.00177737907714325 5.66081679468154e-30 -4.58277546438043e-31 -9.98908669288176e-35 3.19967487111446e-61)
(0.0048001624092188 -4.85146202906337e-05 1.38987023921353e-30 -8.07177694600566 -0.00307364421103196 -5.77310774008361e-30 4.53022991614365e-31 1.72642491089314e-34 3.22187992851168e-61)
(0.00580526086629052 -4.9334216153075e-05 -1.39677635803704e-30 -7.95934711948341 -0.00431790499258347 3.34250445520113e-32 0 0 0)
(0.00674965815970566 -4.97438578105425e-05 -4.8843050382204e-20 -7.82922064148073 -0.00550401548162793 1.40069690953408e-18 0 0 0)
(0.00762976934318697 -4.97610505555011e-05 4.88587731927825e-20 -7.68259131805337 -0.00662655087521101 -2.60816852872919e-18 -7.93666924414341e-21 3.9130797899253e-24 3.06686148662253e-43)
(0.00844272087738495 -4.94087559699745e-05 -4.9915083784074e-22 -7.5207033101094 -0.00768088525261237 1.20688984163886e-18 7.93666924411453e-21 -3.91307978991106e-24 -3.06686148661137e-43)
(0.00918637917452016 -4.87146990815464e-05 5.02567309128446e-22 -7.34483840357395 -0.00866324856235308 -5.06780597100871e-19 -7.59279937409642e-21 1.9991023528164e-24 3.73327187279245e-43)
(0.00985935838430133 -4.77101507453255e-05 -1.48591396652276e-14 -7.15630288299092 -0.00957075250502417 1.62134785113571e-16 7.5927993740954e-21 -1.99910235281614e-24 -3.73327187279195e-43)
(0.0104610005984045 -4.64290208575377e-05 -7.52541286552177e-16 -6.95641478964718 -0.010401380903396 6.29831419271745e-14 -4.01004993095931e-15 -5.99981392614387e-18 3.64215741222608e-29)
(0.0109913428467551 -4.49068639337926e-05 2.91557054435555e-14 -6.7464916785436 -0.0111539714995754 2.31468138624308e-15 -1.9328422238455e-16 -3.14519757314986e-19 4.16805511149325e-32)
(0.0114510649211583 -4.31798900889014e-05 7.52479334177778e-16 -6.52783920257904 -0.0118281641934727 -6.05737865800574e-14 3.58204052049718e-15 6.48919590724571e-18 3.31970396916393e-29)
(0.0118414279623307 -4.12842253787766e-05 -1.42965164361006e-14 -6.30174080297729 -0.0124243447840311 6.20738451688951e-17 -1.68966924671903e-21 -3.88840467438875e-25 6.97162206896899e-35)
(0.0121642064084902 -3.9255138215982e-05 1.25910585077226e-20 -6.06944851194282 -0.012943572978201 -2.73914281480211e-23 0 0 0)
(0.0124216130591209 -3.71264289802639e-05 -1.28270155507527e-20 -5.83217506586738 -0.0133875043149718 -2.7904744831143e-23 0 0 0)
(0.0126162228161445 -3.49299304360833e-05 1.28338747143533e-20 -5.59108733430167 -0.0137583052303478 -1.31712944540472e-19 -1.45051109716954e-21 -1.13296624784244e-24 3.34483922932524e-44)
(0.0127508950468082 -3.26951046612698e-05 1.28270155507417e-20 -5.34730108661534 -0.0140585681571111 1.3189505584659e-19 1.45051109748331e-21 1.13296624861466e-24 -3.34483848984185e-44)
(0.0128287015156887 -3.04488694274441e-05 -1.28338747143638e-20 -5.10187709298123 -0.0142912251414176 -8.37590001036475e-23 0 0 0)
(0.0128528512692918 -2.82152121101369e-05 0 -4.85581838148402 -0.0144594687929402 0 0 0 0)
(0.0128266296814301 -2.60155006676731e-05 0 -4.61006889250676 -0.0145666632217071 7.69156568746347e-19 0 0 0)
(0.0127533257103108 -2.3867795448251e-05 0 -4.36551285411194 -0.0146162882930367 -7.70963511410342e-19 0 0 0)
(0.0126361907208861 -2.17880214582722e-05 0 -4.12297587641928 -0.0146118323559348 0 0 0 0)
(0.0124783561422806 -1.97882476711172e-05 0 -3.88322582102309 -0.0145567905844394 -1.56558006916614e-18 0 0 0)
(0.0122828410990253 -1.78800097330345e-05 0 -3.64697657820773 -0.0144544997209083 1.5691930581391e-18 0 0 0)
(0.0120524140455407 -1.6069021218484e-05 0 -3.41488893127289 -0.0143082654944742 1.58310099622947e-18 0 0 0)
(0.0117897044844601 -1.43644248811159e-05 0 -3.1875787429503 -0.0141209923963814 -1.58665437219468e-18 0 0 0)
(0.0114969186254299 -1.2764431930839e-05 0 -2.96561456836731 -0.0138956764915097 -1.59999685749133e-18 0 0 0)
(0.0111761931128931 -1.12794934799091e-05 0 -2.74953487908063 -0.0136344601629268 1.60344774023583e-18 0 0 0)
(0.0108289295926707 -9.89677889904456e-06 -1.62397281912343e-14 -2.5398347328556 -0.0133400382105495 -5.29934811393907e-16 0 0 0)
(0.0104567504976091 -8.63534778942361e-06 -3.24750461119379e-14 -2.33700439790634 -0.0130132989404763 7.36923398006188e-14 -1.35058273491489e-15 -7.51536890609108e-18 4.22003545919765e-29)
(0.0100598607452845 -7.46217195707108e-06 1.31058668932478e-17 -2.141485467699 -0.0126568784347089 1.53623208339054e-13 -2.4704520215966e-15 -1.46000665572731e-17 1.77279371726624e-28)
(0.00963950668804287 -6.42016387142019e-06 3.24750461117681e-14 -1.95376315004576 -0.012269515592096 8.02102920870568e-14 -1.1244721752295e-15 -7.06526686490817e-18 4.6630679938536e-29)
(0.00919395255027544 -5.43578638260793e-06 1.62268417160663e-14 -1.77424163441929 -0.0118545313854046 6.35409223439039e-16 0 0 0)
(0.00872464260021828 -4.6080579809549e-06 -2.19473589852052e-19 -1.60347076172049 -0.0114068065416683 5.54267839616092e-18 7.07073534354495e-21 4.13498628799362e-23 6.37418637730753e-42)
(0.00822629764869495 -3.77529411860102e-06 -4.39997216846129e-19 -1.44181465173547 -0.0109321262655062 1.0460916082701e-18 -7.07073534346824e-21 -4.13498628794876e-23 -6.37418637723837e-42)
(0.0077021436029682 -3.16428113689272e-06 4.40151432083448e-19 -1.29001464231472 -0.0104179250404687 -5.57125916626779e-18 -5.82794677085318e-21 -4.18913110164033e-23 5.65818523633051e-42)
(0.00713994722037095 -2.4194399659636e-06 2.20605322995532e-19 -1.14833837742508 -0.00987669133261561 2.27752756306987e-18 5.82794677080056e-21 4.18913110160251e-23 -5.65818523627943e-42)
(0.00654881472033949 -2.05240824927623e-06 -2.20677842228557e-19 -1.01796720483223 -0.009281029516738 -1.10417776881295e-20 0 0 0)
(0.00590201310501645 -1.28544391734143e-06 2.2284659989442e-19 -0.898874669761378 -0.0086597862377265 1.21198837703376e-20 0 0 0)
(0.00522486940914745 -1.27692885589331e-06 -4.46266907318497e-19 -0.793197987214739 -0.00795510440552889 2.26400664055475e-18 3.89174982181375e-21 4.24401437187704e-23 1.74319759600997e-38)
(0.00445933363761796 -2.73847259347303e-07 5.66930600252615e-22 -0.700062789430576 -0.00723496799907519 -4.58387235900878e-18 -7.43556799110118e-21 -8.4901653887598e-23 -3.48197181586884e-38)
(0.00367168610455973 -9.2834665247336e-07 2.21887624665666e-19 -0.623668454952627 -0.00637554262590246 2.30761740479988e-18 3.54381816929411e-21 4.24615101689073e-23 1.73877421986213e-38)
(0.00273629139975338 7.52429002817052e-07 9.92476349378948e-22 -0.560882684629753 -0.00553917315590685 -2.30444468031055e-18 -3.04384701132004e-21 -4.24752358331699e-23 2.08510810967027e-42)
(0.0018178995097852 -1.30351588670206e-06 -9.57084356598785e-22 -0.520342209523367 -0.00445432567046109 2.30471726111312e-18 3.04384701137413e-21 4.24752358339246e-23 -2.08510810970732e-42)
(0.000640340803172688 2.12368567632319e-06 2.26723857573758e-19 -0.49325427879362 -0.00350719637907202 -2.2990468917903e-18 -2.85204714081043e-21 -4.24112435303765e-23 1.76171399289041e-38)
(-0.000403628368782125 -3.17573579605127e-06 -2.26668429870719e-19 -0.497935504241819 -0.00208429423130081 4.61807670033835e-18 5.73558667415466e-21 8.50702682525798e-23 -1.75488748647719e-38)
(-0.00190363971781592 4.02084445838932e-06 -2.24935452591184e-19 -0.512016641237743 -0.0011225924590369 -4.65850117446073e-18 -5.91560720262292e-21 -8.50043301373221e-23 -1.76867226214795e-38)
(-0.00297151134942044 -8.62344320770028e-06 4.52004796880955e-19 -0.574497108773344 0.00079380878431399 2.3560893047768e-18 3.03206766932399e-21 4.23453054157634e-23 1.76184575575284e-38)
(-0.00481142337123964 6.00900619286282e-06 -4.53649138044753e-19 -0.632145557900423 0.00139948134189137 -3.40493719003748e-20 0 0 0)
(-0.00547252103093114 -2.70464289311129e-05 -4.48502035832198e-22 -0.765955180636037 0.00393327090160114 -2.33662172535103e-18 -4.06630125652479e-21 -4.46595422371317e-23 -1.77817479619926e-38)
(-0.00719923584849587 -0.000304698357538619 4.55261836871459e-19 -0.85534846257821 0.00294486787452501 6.94264666093428e-18 -5.6170769654e-22 -2.37735526595226e-23 3.55210029360359e-38)
(0.00229517873028459 -0.00277028194107582 2.2480535734484e-19 -1.06237093408887 -0.00281103703493594 -5.98000764650916e-17 1.35663654115056e-19 3.86608848277653e-22 7.36026382010803e-36)
(0.0956958765947181 0.00268373549986064 -5.75485822908625e-17 -1.23132523009545 -0.0975018248544556 -9.60571340104702e-18 -1.16178995997836e-20 -1.40014290767731e-21 -9.1050792701501e-36)
(0.199262295760683 0.0260061583190821 9.55506099287039e-17 -1.24854908354967 -0.196793906524813 -5.89681367195246e-16 1.169476084827e-20 1.40940591869055e-21 9.16531629959425e-36)
(0.296862584931575 0.0651318526770456 3.53404107366184e-16 -1.23913642602867 -0.293516552086579 -1.73599278688194e-15 0 0 0)
(0.353978069954032 0.106202423224167 -1.67604402371001e-16 -1.1082223741316 -0.347587098320822 5.48913340756299e-16 -4.58886828373924e-18 -1.43753541133717e-18 2.27105650930216e-33)
(0.368189684765894 0.139349163723591 -6.37541042212221e-16 -0.924102828886399 -0.360084870707595 1.67360930352867e-15 0 0 0)
(0.314343785927355 0.143251620993176 1.1444219309402e-15 -0.652658668620981 -0.304328871803531 -2.76032935656612e-15 -3.21333050243645e-21 -1.36762138877468e-21 -1.81910508367453e-35)
(0.192899061451291 0.104415401145061 4.68219356391833e-16 -0.327260604805543 -0.181646422919492 -1.08896726424417e-15 3.33397977869998e-21 1.41897076931088e-21 1.88740609149997e-35)
(-0.0200212124557465 -0.00335924206958594 -5.1892442703238e-17 0.0798654822297848 0.0313692172069016 1.07281159628008e-15 7.10114485378931e-19 2.75028321679617e-19 9.35468454094123e-33)
(-0.338037777730968 -0.203019880085454 -2.44869656069737e-15 0.574829453350144 0.347904232551416 4.1473010566896e-15 -5.3751944189054e-18 -3.25179377515534e-18 -3.87764221387621e-32)
(-0.752664692942942 -0.496682143952794 -2.33368561363346e-16 1.14643280415504 0.759619067884148 -2.4370218549185e-17 0 0 0)
(-1.25734332615507 -0.879802875387751 -1.45154582304557e-15 1.79558966902676 1.2596106911443 2.00011725817784e-15 0 0 0)
(-1.83823350055607 -1.33776426373235 -2.06231110589153e-16 2.51757992718857 1.8348147401471 -2.32323265265806e-17 0 0 0)
(-2.48508441990628 -1.853235663351 -1.91935370987915e-16 3.31610403725437 2.47452245190492 -1.16239906351382e-17 0 0 0)
(-3.16004691710968 -2.38660663851905 -6.89764000692974e-16 4.16040061460654 3.14293332613748 9.08914657963875e-16 -2.24135621715376e-20 -1.69466691745759e-20 1.85754805481745e-35)
(-3.82302796465364 -2.91073531590762 2.39095168297174e-15 4.98973140484545 3.80032861349161 -2.83078551085531e-15 2.31296566522343e-20 1.74881010170126e-20 -1.9168951545557e-35)
(-4.49790094640986 -3.45908170892613 1.25867887734721e-18 5.80850249247313 4.46945693690408 -1.3656717643206e-18 0 0 0)
(-5.24187486522565 -4.08243195727778 -1.08120361155194e-18 6.67964808785733 5.20601012823983 1.371244227462e-18 0 0 0)
(-6.07574944685083 -4.80597529836425 2.22341445664645e-15 7.61925153034802 6.03211669152962 -2.77639775101102e-15 0 0 0)
(-7.08942619489407 -5.70795899840946 2.23703223469319e-15 8.7262118962857 7.0324783420984 -2.7419359787913e-15 0 0 0)
(-8.3428829431586 -6.85321541513215 -2.39890331221377e-15 10.0598328554602 8.27073543309511 2.69439073982732e-15 1.03549837392267e-16 8.51310989495245e-17 2.7786872060656e-32)
(-10.109388490712 -8.4580650073239 1.69533520390676e-15 11.9552811172609 10.0038574371169 -1.81022824816481e-15 0 0 0)
(-12.5238208453726 -10.4956321645202 -1.37830171223698e-15 14.7794114988036 12.3733293172878 1.79010619749854e-15 0 0 0)
(-15.4936725293714 -12.701203662274 -1.46479612376497e-16 18.690568342144 15.286822405429 -2.96922769840425e-18 0 0 0)
(-18.9756764804605 -14.8130795248158 2.0021536868331e-15 24.0495186618333 18.7019484339938 -2.51389155519025e-15 -2.43128550509082e-16 -1.89068483039191e-16 2.54063746578316e-32)
(-22.8692052229773 -16.4379647977184 1.06536304843862e-16 31.5135367868673 22.5144609252561 -5.90454889138716e-19 -5.8254048271307e-21 -3.7639666379605e-21 -4.67202273802641e-37)
(-26.3999965542285 -16.6324067364353 -1.16838276424341e-15 41.6256732706952 25.9716520334144 1.67564426438066e-15 5.80490616558516e-21 3.75072184545768e-21 4.65558264232803e-37)
(-27.3033693963777 -13.9242612928118 1.38320065991614e-16 53.5215067835124 26.862107359363 -4.73951452318974e-16 2.37903577699134e-16 1.19387946172762e-16 -2.11351448627596e-33)
(-21.0947022887138 -7.56671952157609 1.10848896715359e-16 59.8364059396101 20.8365138453671 -1.81121815395905e-18 1.49870662845354e-20 4.13225888028624e-21 1.85254228057492e-37)
(-10.4708819559015 -2.29946033696406 2.07613826330438e-17 51.1575046938412 10.4256887020453 -1.53574133962365e-16 -1.03045940766197e-16 -2.09965286709281e-17 3.09523323493073e-34)
(-3.42024880037846 -0.412662179126094 -2.58078583052972e-18 35.7109354613476 3.41637492168348 -1.96505536907649e-16 3.23521375047699e-21 2.02977385020674e-22 -4.69921219746043e-38)
(-0.513640078447157 -0.0438941717548379 9.63395094754281e-18 20.6101567068767 0.554564381231762 -1.05277440433846e-19 -3.23109682283196e-21 -2.02719088885656e-22 4.69323227832751e-38)
(-0.094012231977425 -0.00370605720502389 -2.38567716847244e-21 13.0282878865398 0.0752026234716154 1.03799223400372e-23 0 0 0)
(-0.0335516564441473 -0.00873028895955023 0 14.2816255977472 0.0606943378737434 0 0 0 0)
(0.0742978248771009 -0.0270047946569527 8.30967194223517e-22 13.9864126594242 -0.0998944986396548 7.82498663546556e-20 0 0 0)
(0.592380722484585 -0.0533494823872115 -3.38805926315354e-17 11.690565752125 -0.56826829367835 -4.56477318992733e-19 0 0 0)
(0.400724195298057 -0.0074181466575759 -3.06473552193063e-18 4.63525151682539 -0.389099853516192 -1.99843228172921e-17 4.30108029957466e-18 -5.59774106231234e-19 -1.28504076188459e-33)
(-0.747562329393255 0.376753873724171 3.30175734389365e-16 -1.33095775080698 0.779064343701782 8.44652538638004e-16 0 0 0)
(-1.90330968827498 1.03065804764408 4.78587350254185e-16 -3.67160194093992 1.92948862631952 1.22721301534836e-15 0 0 0)
(-1.79637746224023 1.13304258933057 1.45183751675233e-15 -2.95480826136186 1.81243032823479 2.26505376305561e-15 -2.89666203050965e-17 1.81096160414344e-17 -2.13319176999295e-32)
(-1.44027879006694 1.03360066807609 1.53624870976649e-16 -2.06040675601236 1.45053046636154 8.94261941184295e-19 0 0 0)
(-1.22945998921954 0.966180342418643 7.8895217614342e-16 -1.59119911069264 1.23660825139465 1.4291243560422e-15 -1.60751310586135e-17 1.24935242605063e-17 1.44012994823942e-32)
(-1.07111744701192 0.884169940208454 5.12670104311226e-16 -1.31215504899963 1.07707599216914 6.22547717774454e-16 -4.06910157040953e-17 3.35859299974434e-17 -5.07670550893194e-32)
(-0.921027415375896 0.773166587817767 1.50598282501499e-16 -1.10390060883162 0.925326902659302 -1.22058069176146e-18 1.68062898749555e-21 -1.4403970073772e-21 3.73548893134557e-37)
(-0.774101684237488 0.645781596767748 -4.17374405509817e-16 -0.929543091577297 0.776851569705666 -7.13292113587719e-16 -9.5208461690505e-18 8.03725790954562e-18 7.3468726697245e-33)
(-0.66492265474303 0.544649978551105 3.87329950623813e-17 -0.810788487881653 0.6663223174367 6.78398251054241e-17 1.64932851467797e-17 -1.36144534527231e-17 -2.22403031493178e-32)
(-0.597193773726617 0.481692357062911 7.05062235784644e-16 -0.738733888990022 0.597655418718274 1.37141979199955e-15 -1.48467081115162e-17 1.20524822987464e-17 -2.22204084834966e-32)
(-0.562743715166218 0.44890604046156 -2.9767417823298e-15 -0.703269321690596 0.562343708374509 -3.69584695920375e-15 -6.89629702380351e-18 5.53750713771062e-18 -7.15457140763484e-33)
(-0.559811408898379 0.443797047815926 2.09852516436501e-15 -0.70374077150117 0.558922173129295 2.11859001693976e-15 -1.39172193885556e-17 1.10525539368224e-17 1.72986078678763e-35)
(-0.58545593108333 0.462306042664439 -1.45892384028251e-15 -0.738609262316369 0.584102796595957 -2.16427479926993e-15 1.45603645364383e-17 -1.14889152231466e-17 -2.85984322277644e-35)
(-0.63391606909577 0.49922186194221 3.76419194775334e-16 -0.802145572392047 0.632515659396446 7.862818649755e-16 1.23391018464575e-20 -9.62617080256622e-21 -2.10252447886835e-38)
(-0.696679679793207 0.546347732451654 1.1176025961599e-15 -0.885147077779646 0.695425097093121 1.45605055819496e-15 1.63806311833935e-21 -1.19861864379968e-21 4.17458397286723e-38)
(-0.756266371393609 0.586030144039249 -8.55196423213073e-19 -0.971074306733083 0.75531390510364 -7.99296378774036e-19 -1.31737566898681e-20 1.0200481184276e-20 -2.07083835760658e-38)
(-0.802145418779947 0.605924353481474 -1.4151640670853e-15 -1.05412148031461 0.801590552696085 -2.26166869816385e-15 -1.58424712776149e-20 1.17283331663546e-20 2.19214135204301e-35)
(-0.826524551070873 0.599489405730389 1.12791251877045e-15 -1.12761456832285 0.826325290337012 1.55791668684116e-15 1.0865973855503e-17 -7.89742183254657e-18 -7.10174810037318e-33)
(-0.822316144700046 0.562741989626439 -1.81366269802562e-15 -1.18379346115352 0.822334354683592 -2.27941683551779e-15 -1.59446994023022e-20 1.1305174125411e-20 2.07753727258319e-35)
(-0.786183536665017 0.496977232888902 2.62048547048153e-16 -1.21733279049164 0.786177947676831 -2.78133333517106e-17 0 0 0)
(-0.720517160455196 0.41006316818142 -1.21301641527783e-15 -1.22730418821911 0.720011487247535 -2.32933996520949e-15 2.21259025172757e-17 -1.29857057688301e-17 -2.4873038578647e-34)
(-0.637519750412663 0.317779148759907 -1.29851483530844e-15 -1.22513583985379 0.636659459713897 -1.98619147638682e-15 1.06673964608604e-17 -5.55495789906254e-18 -4.39918654967723e-35)
(-0.547974217645887 0.232753021826468 1.14807631387411e-13 -1.21634389478863 0.546639724968154 2.17946181382002e-13 2.90895302860172e-20 -1.21442741055883e-20 -2.46146716265212e-33)
(-0.454836445945696 0.158543639521584 3.47403774207146e-14 -1.19953611384933 0.453080077614904 9.05931600824709e-14 1.10387247301649e-15 -4.19682538022262e-16 -1.12678043387433e-28)
(-0.364626299670197 0.0985899557916795 -3.01886913302904e-14 -1.18794681853403 0.362932068031028 1.13606721513073e-14 -2.28996888038442e-17 7.02216464913117e-18 2.39999307396896e-31)
(-0.281881421799269 0.0534413984221248 3.78418505196929e-14 -1.1904853498963 0.279386236129 1.60363785578393e-13 -1.12146401918754e-15 2.64311636312278e-16 -3.26017315319459e-30)
(-0.205796082268026 0.0215233638395377 1.71847718437655e-14 -1.25265007532898 0.20579635817089 -2.18144466996634e-15 2.51970265653107e-20 -4.98089766984923e-21 2.6383553838232e-33)
(-0.148204991076794 0.00276512482156049 -2.04545349129389e-14 -1.36951462805322 0.143290338367072 1.92094219508996e-15 3.13145932996842e-20 -1.90699100389241e-21 3.0979461496664e-33)
(-0.109826821872998 -0.00308427274337099 -2.15617681092305e-14 -1.82517535632402 0.11152851615525 -1.37734837920596e-13 -8.83162364472049e-16 2.99401113023994e-17 -3.90960634292999e-29)
(-0.104108917072552 -0.00113646673619755 2.04906690418442e-14 -2.50249258714732 0.100359524554295 -1.42855360196907e-13 -1.28127897263459e-15 2.10834567842229e-17 -3.15366178825253e-29)
(-0.0964986127120288 -0.000294399188345176 2.00029313978182e-14 -3.09610327839807 0.0951565360660556 2.4858571295691e-13 0 0 0)
(-0.0916098277646698 -0.000437448695703433 7.32717584441027e-28 -3.66591131064281 0.0887186854703839 2.51983271474822e-13 0 0 0)
(-0.0832013504494808 -0.000521082799766922 3.72407714070716e-33 -4.17027614796355 0.0807005271358091 4.3282177473096e-18 0 0 0)
(-0.0754733054325493 -0.000545589477679105 1.91881004845308e-30 -4.62460684148947 0.0724110047478264 -5.04354870829774e-18 0 0 0)