/*--------------------------------*- C++ -*----------------------------------*\
| =========                 |                                                 |
| \\      /  F ield         | OpenFOAM: The Open Source CFD Toolbox           |
|  \\    /   O peration     | Version:  3.0.1                                 |
|   \\  /    A nd           | Web:      www.OpenFOAM.org                      |
|    \\/     M anipulation  |                                                 |
\*---------------------------------------------------------------------------*/
FoamFile
{
    version     2.0;
    format      ascii;
    class       volVectorField;
    location    "30000";
    object      grad(k);
}
// * * * * * * * * * * * * * * * * * * * * * * * * * * * * * * * * * * * * * //

dimensions      [0 1 -2 0 0 0 0];

internalField   nonuniform List<vector> 
21000
(
(6.48831018049137e-06 0.00438386002253283 0)
(2.8200647365488e-05 0.00460536980674245 0)
(0.000171803049739803 0.00311052793804371 -5.97883906317121e-25)
(0.000115356368566651 0.000831307480487522 -1.67511733965682e-21)
(0.000177102957526177 0.000452897464035097 1.2043996126945e-30)
(0.000235562110813123 0.000458218596070695 0)
(0.000136764955807473 0.000236994547628997 -2.22833362708109e-21)
(8.1660374572444e-05 0.000121913911434489 -8.69292064857264e-26)
(6.16146540644956e-05 8.10312194468205e-05 8.19581480903389e-22)
(4.76707060536206e-05 5.90935841633751e-05 -6.09173164174551e-22)
(3.60409513271749e-05 4.38416162764083e-05 5.41316399148166e-26)
(2.61101078800353e-05 3.18932110086916e-05 -3.31168910607625e-22)
(2.01563877125417e-05 2.48530665908288e-05 -1.10776645994381e-25)
(1.71701723828176e-05 2.1295114169515e-05 1.57517935915316e-25)
(1.61371549359397e-05 2.00298231441038e-05 -2.03220847902278e-22)
(1.69613791019699e-05 2.09651963062654e-05 0)
(1.97023692455754e-05 2.42413653868178e-05 0)
(2.45089073925052e-05 3.01037059945712e-05 4.75732331306926e-25)
(3.13386142972205e-05 3.86706365033768e-05 -1.05768375009104e-24)
(3.90294771846431e-05 4.88503663143884e-05 5.78162862650604e-25)
(4.65669831569433e-05 5.9947318653015e-05 8.4515042320773e-25)
(5.27146737623155e-05 7.08835397627035e-05 6.90451361036233e-22)
(5.60336999928606e-05 8.00616300430423e-05 1.86022136176771e-24)
(5.55874406386654e-05 8.60576017212413e-05 -9.26239814088434e-25)
(5.14772690743456e-05 8.81983032835491e-05 0)
(4.55115525988292e-05 8.82772058510008e-05 -6.67968718040126e-31)
(3.89167521372159e-05 8.7400508507052e-05 -1.31694628785719e-24)
(3.1811497398829e-05 8.50466083052605e-05 1.27481303837964e-24)
(2.49895208417956e-05 8.26989207799223e-05 0)
(1.87694681075481e-05 8.06296329570312e-05 0)
(1.34115543632342e-05 8.43412593436869e-05 8.65261848222322e-25)
(9.73804871778096e-06 8.91852167077608e-05 -2.42687573349481e-25)
(1.12831198425127e-05 0.000135300543958539 -7.76637232690837e-20)
(1.57763034216292e-05 0.000255178655735001 -1.48695234953092e-19)
(1.98374649173695e-05 0.00040106583013498 4.15595498761837e-24)
(2.34966919789285e-05 0.000583964402603225 -4.15595498761834e-24)
(2.55204352899801e-05 0.000784180261639151 7.98043000536616e-24)
(2.66902634618713e-05 0.00100052773159774 2.08246079510588e-24)
(2.68546614751591e-05 0.00122203452300593 2.09528766052646e-24)
(2.65190702948714e-05 0.00144653147722404 -2.63854606717207e-23)
(2.57306555541614e-05 0.00166936130566951 -2.00758907833418e-24)
(2.47047408083391e-05 0.00188929578775262 1.62348712889128e-23)
(2.34676183272155e-05 0.00210438130773737 0)
(2.2088272350338e-05 0.0023137855109326 -2.17168333056029e-23)
(2.05698718224442e-05 0.00251636457447927 -1.60492801773229e-24)
(1.8931164114654e-05 0.00271127669983822 4.81205933813755e-23)
(1.71730058526919e-05 0.00289752741106832 1.66165683796262e-18)
(1.53056915107539e-05 0.003074204322248 1.78291296529083e-18)
(1.33379580810029e-05 0.00324035914696959 -2.73329252134729e-23)
(1.12854369967312e-05 0.00339512033350091 -2.92541222428929e-23)
(9.16605032628031e-06 0.00353768166898128 2.92541222432192e-23)
(7.00183343651572e-06 0.00366735482684378 -1.5257796448052e-23)
(4.81657205172005e-06 0.00378355712863569 -2.17349612345042e-18)
(2.63457187374592e-06 0.00388578776834395 -2.24928519087125e-18)
(4.79336741485567e-07 0.00397359314878807 -1.55484776384883e-23)
(-1.61752808697489e-06 0.00404656003928834 0)
(-3.62653629045651e-06 0.00410471547886022 0)
(-5.52642841849755e-06 0.00414820864773208 2.32789619675836e-34)
(-7.29580429362725e-06 0.00417735685743938 -2.34424729847835e-34)
(-8.91655300111964e-06 0.0041926301847572 0)
(-1.03741312873194e-05 0.0041946361918598 0)
(-1.16577779974631e-05 0.00418410178585705 6.82751610366594e-24)
(-1.27605803228579e-05 0.00416185281301901 -6.8275161036411e-24)
(-1.36793910942394e-05 0.00412879278815305 6.31178305386096e-24)
(-1.44146352155442e-05 0.00408588119237624 -6.31178305386012e-24)
(-1.49700088346622e-05 0.00403411230314079 2.32491922802704e-18)
(-1.53521117793026e-05 0.00397449508681878 1.14489811129432e-19)
(-1.55700218520439e-05 0.00390803461880592 -2.14460061060358e-18)
(-1.56348434593214e-05 0.00383571553300764 1.28386263206296e-24)
(-1.5559250337264e-05 0.00375848760116737 0)
(-1.53570353078103e-05 0.00367725366215382 0)
(-1.50426861726361e-05 0.00359285990713303 9.83503322438924e-25)
(-1.46309961917627e-05 0.00350608847754693 -9.83503322640554e-25)
(-1.41367228630757e-05 0.00341765224356318 0)
(-1.35742885849304e-05 0.00332819152031142 0)
(-1.29575417325211e-05 0.00323827262458342 0)
(-1.22995521548757e-05 0.0031483878306828 0)
(-1.16124774031579e-05 0.00305895677929239 0)
(-1.0907434991418e-05 0.0029703286973019 0)
(-1.01944806813996e-05 0.00288278573376156 0)
(-9.48250849302002e-06 0.00279654623270227 0)
(-8.77935063932087e-06 0.00271176933681212 0)
(-8.09164294054465e-06 0.00262855846982822 0)
(-7.42509074255781e-06 0.00254696644020815 0)
(-6.78417744160334e-06 0.0024669985097277 0)
(-6.17272982841554e-06 0.00238861753166873 1.37888782494241e-18)
(-5.59322702785834e-06 0.00231174570511196 2.66685996571744e-18)
(-5.0479764248416e-06 0.00223627032354012 1.28887788504823e-18)
(-4.5375525811347e-06 0.00216204221311547 0)
(-4.06325163792694e-06 0.00208888499080485 -2.76149060354914e-24)
(-3.62365260888054e-06 0.0020165833650045 2.76149060351918e-24)
(-3.21976935106982e-06 0.00194490774997152 2.22754465895877e-24)
(-2.84774209928191e-06 0.00187357371174886 -2.22754465893865e-24)
(-2.50949150935153e-06 0.00180231018194888 0)
(-2.19749902497703e-06 0.00173075077150977 0)
(-1.91680123235865e-06 0.00165860070964859 -1.48854491194996e-24)
(-1.65325699357002e-06 0.00158539038733727 2.84809735897847e-24)
(-1.41940434697505e-06 0.00151084668805013 -1.35955244703106e-24)
(-1.18785906953489e-06 0.0014343737486194 1.15612531130645e-24)
(-9.88109543871244e-07 0.00135582579314642 -1.15612531132699e-24)
(-7.61701667301366e-07 0.00127447908197551 1.01959937363673e-24)
(-5.77591441853078e-07 0.00119103690643428 -1.99413319237665e-24)
(-3.14276773120503e-07 0.00110461098980944 1.92454674580601e-24)
(-1.36847757327472e-07 0.00101619086463387 -9.5001292708063e-25)
(2.31967097854952e-07 0.000924366593235651 0)
(3.4637487120937e-07 0.000832624346197449 9.84459735310674e-25)
(8.19924667551723e-07 0.000733937328806531 6.39731779926376e-26)
(-5.01829682141623e-06 0.000640629089151423 -8.01094528490428e-23)
(-5.34500130454696e-05 0.000678763401060024 2.79720193356744e-24)
(-0.000121029781517135 0.000765483996547639 -2.81570726081899e-24)
(-0.000210564955229377 0.000891956135852309 0)
(-0.000319366683621128 0.00102242115064295 4.23125735257053e-21)
(-0.000446225406526529 0.00115630830055035 0)
(-0.000587155302270664 0.00128522834184763 1.26465631754154e-24)
(-0.000742873020216325 0.00141513554500235 -1.31213838529314e-24)
(-0.000916377062103594 0.00156065817413312 1.43026347287303e-20)
(-0.00112071236990455 0.00175558174504062 -1.64863886987578e-20)
(-0.00135312609012097 0.00199050012804121 0)
(-0.00160958608844035 0.00226186878829875 -1.56424534493735e-30)
(-0.00189297134612996 0.00257867943770646 0)
(-0.00220699099158983 0.0029492801419674 0)
(-0.00252728262905444 0.00334522295020081 -1.63172955976464e-23)
(-0.00283720186199442 0.00373014334225961 1.68386212692833e-23)
(-0.00316685020776273 0.00412486971536186 0)
(-0.00356119813635102 0.00458233581155197 0)
(-0.00404676399080239 0.00513247269604008 0)
(-0.00470867168723427 0.00587419884718659 0)
(-0.00562658791718844 0.00690683685336666 7.10731982350659e-20)
(-0.00715731519527687 0.0086727103554763 2.28009324508978e-30)
(-0.00962026246694541 0.0116881183336449 -2.38055808184444e-30)
(-0.013174100394813 0.0164134227890506 0)
(-0.0181032446021645 0.0237808354815269 -2.40493322915693e-19)
(-0.0248279170155185 0.0355690033239252 -1.80659083430043e-23)
(-0.032834258712621 0.0537254841178772 1.80023347720318e-23)
(-0.0381890569900835 0.0761067256365573 3.38392647155769e-19)
(-0.0293530457802201 0.0803354662305143 4.85898409624485e-23)
(-0.0124108094161332 0.0512591625106728 -1.03215038286053e-19)
(-0.00359327226989394 0.0237384000215386 4.77140044313264e-24)
(-0.000768339755615378 0.0087294410112161 -4.76532837081677e-24)
(-0.000138658774947067 0.0046578805484975 0)
(-9.2245095049174e-06 0.0165268394685578 0)
(0.00012995900436666 0.0161878196469403 0)
(0.000847064021990879 0.0113674671357828 0)
(0.00101263651003618 0.00560207366313388 1.62461641931934e-21)
(0.000410531926625524 0.00128261525919847 0)
(-8.34437725296798e-05 -0.000140514788790319 0)
(-9.44563727737378e-05 -0.000141687069495428 2.15925301229888e-21)
(-4.11607560384546e-05 -5.42152696866916e-05 0)
(-2.6354051673527e-05 -3.21623356611241e-05 -3.25206884651268e-22)
(-2.11403834740247e-05 -2.47321735700437e-05 9.25474027478431e-22)
(-1.39953101049822e-05 -1.60195969926908e-05 -1.31846013675722e-26)
(-6.64270371702333e-06 -7.55111377595215e-06 3.20802410491569e-22)
(-1.54391301422444e-06 -1.72024860862044e-06 -2.29938726885179e-22)
(2.13782110960543e-06 2.65064112794129e-06 2.37437727098949e-22)
(5.30387860740843e-06 6.55215243749968e-06 1.96844664529353e-22)
(8.44118443384103e-06 1.05070589573723e-05 3.10595160599903e-22)
(1.21165175445687e-05 1.51919180719815e-05 -3.88283906119398e-22)
(1.68873354249335e-05 2.13026883627839e-05 -1.97516073529552e-25)
(2.33648341981715e-05 2.96435410516385e-05 -6.61848308080463e-26)
(3.24242652436033e-05 4.16282471492332e-05 2.49601126268084e-25)
(4.42774597044637e-05 5.82337076630569e-05 4.13533261584811e-25)
(5.89290807506783e-05 8.04635736213449e-05 -6.71684988898519e-22)
(7.54716039433383e-05 0.000108600996192122 4.82089465460555e-25)
(9.17976407740605e-05 0.000141696564344063 0)
(0.000104960212404589 0.000177705400424284 -2.41234005959572e-21)
(0.000112055421456194 0.000213532315435761 -1.33355590109985e-21)
(0.000112739484431759 0.000247353416430504 -1.57032334888841e-24)
(0.000106464940263708 0.000276745195100135 -1.73420201813269e-19)
(9.36039245448475e-05 0.000300213941879534 5.52780524531581e-21)
(7.62725040465348e-05 0.00032103432982209 2.01390446224401e-19)
(5.60587785998588e-05 0.00034513636318965 -1.65534564380617e-24)
(3.49731280124619e-05 0.000395151622759306 -2.19593753451788e-24)
(1.22944514171466e-05 0.00049307674061441 7.71598795448364e-20)
(1.04740352725182e-05 0.000684253823353854 1.42390100273489e-19)
(1.26042284817398e-05 0.000930057599601874 0)
(1.42666750832509e-05 0.00119235138219103 0)
(1.5517362906717e-05 0.00148387120097716 0)
(1.64343404726493e-05 0.00179475378462451 0)
(1.70724333621693e-05 0.00212802821682027 -1.86135727426838e-34)
(1.75455545480604e-05 0.00248080817782448 9.46471155737637e-24)
(1.78970855330869e-05 0.00285418443647161 -9.46471155745182e-24)
(1.81760957090318e-05 0.00324742119570684 1.21930290250993e-23)
(1.83940886944414e-05 0.00366081229974522 -1.21930290252407e-23)
(1.85610181780344e-05 0.00409391257712254 0)
(1.8672309161206e-05 0.00454634652932798 0)
(1.87235897752585e-05 0.00501727797282636 0)
(1.87068191962816e-05 0.005505645882729 -1.62786831023202e-18)
(1.86160421671851e-05 0.00601002608509948 -1.71189778415757e-18)
(1.84463485348627e-05 0.00652873108622376 0)
(1.81958958371058e-05 0.00705981738943146 0)
(1.78645882299265e-05 0.00760116029219163 5.49470641690595e-18)
(1.74521253053456e-05 0.00815046075445965 5.84474250522024e-18)
(1.69527620877596e-05 0.00870514911751151 2.12328210775015e-18)
(1.63543348425883e-05 0.0092620770232065 2.16495137683212e-18)
(1.56413608604266e-05 0.00981928990225221 1.43004066884889e-23)
(1.48294732446441e-05 0.0103702866789066 0)
(1.39446532975725e-05 0.0109115360941825 0)
(1.29940497944485e-05 0.0114395402893011 -2.25706980926135e-34)
(1.19877659464717e-05 0.0119509273606254 2.27292342768801e-34)
(1.09362161571932e-05 0.0124424886206652 0)
(9.85014653629908e-06 0.0129112305600061 -1.77108304760984e-23)
(8.74034230160934e-06 0.0133544180797394 2.67315099614502e-23)
(7.61738253409348e-06 0.0137696099480957 -9.02067948528828e-24)
(6.49142489740611e-06 0.0141546859208748 0)
(5.37201582852891e-06 0.0145078652299337 0)
(4.26793974691519e-06 0.0148277163104503 -2.25812586299969e-18)
(3.18709905757145e-06 0.0151131585201805 -1.04294579254392e-19)
(2.13643106224042e-06 0.0153634559382405 2.07658033379165e-18)
(1.12185874336374e-06 0.0155782046126397 -2.08721358204007e-34)
(1.48267609541842e-07 0.0157573137822936 0)
(-7.8048748447925e-07 0.0159009822759258 0)
(-1.66155221085975e-06 0.0160096711607529 1.95515146376369e-34)
(-2.49302445612065e-06 0.0160840737530447 0)
(-3.27389369767956e-06 0.0161250838707536 0)
(-4.00397114906498e-06 0.0161337632925373 0)
(-4.68381151869536e-06 0.0161113089635447 -9.27491323679151e-24)
(-5.31463798815096e-06 0.0160590212154726 9.27491323679148e-24)
(-5.89825318023229e-06 0.0159782722035374 0)
(-6.4369775211288e-06 0.0158704777722189 1.78823715473722e-23)
(-6.93356604962671e-06 0.0157370677354054 -1.78823715473406e-23)
(-7.39118407946125e-06 0.0155794632027385 -1.73406607159978e-23)
(-7.81328318030292e-06 0.0153990466259033 1.73406607160724e-23)
(-8.20368930286237e-06 0.0151971499155121 1.67349560857433e-23)
(-8.56637038598843e-06 0.0149750156104205 -1.67349560858128e-23)
(-8.90573249061141e-06 0.0147338067102884 0)
(-9.22616978715435e-06 0.0144745412447809 -1.32751497412421e-18)
(-9.53271375614895e-06 0.0141981449038022 -2.58544535125302e-18)
(-9.83015631770099e-06 0.0139053265323171 -1.25932904405941e-18)
(-1.0124302332443e-05 0.0135967150739925 -7.65729828979805e-25)
(-1.04204637888763e-05 0.0132726173828792 -2.92204468917814e-23)
(-1.07254523020041e-05 0.0129333070474297 -2.76211210139765e-23)
(-1.10451809143591e-05 0.012578578463012 2.76211210144962e-23)
(-1.13877964858224e-05 0.0122082988053735 0)
(-1.17595737363508e-05 0.0118216086782803 0)
(-1.21706374070105e-05 0.0114179564194142 0)
(-1.26262047129909e-05 0.0109956197946872 0)
(-1.31386503756284e-05 0.0105537565281749 0)
(-1.37078128780784e-05 0.010089499654935 0)
(-1.43490501037691e-05 0.00960223089007802 0)
(-1.5045004011421e-05 0.00908748370146847 0)
(-1.57704262947139e-05 0.00854637530297037 0)
(-1.64711712465264e-05 0.00797608268659051 0)
(-1.72431457535494e-05 0.00738251828621553 0)
(-1.79696283767466e-05 0.00675267319188671 0)
(-1.86837072566317e-05 0.00610263781421111 0)
(-1.94923808753153e-05 0.00541392133511505 0)
(-2.009932210386e-05 0.00470415226537471 -1.87933059741984e-23)
(-5.26548333468965e-05 0.00396404114653852 9.5438912587879e-23)
(-0.000324687680379399 0.00410560732448268 0)
(-0.000724766994540232 0.00467054359310107 0)
(-0.00127547934944381 0.00551693380245857 2.59047995505915e-20)
(-0.00198537803684025 0.00648743130180713 -4.10226678245466e-21)
(-0.00284902694813453 0.00751896340306015 -3.65586013409087e-20)
(-0.00385406619177766 0.00857390968794791 4.26081789985495e-20)
(-0.00499641278264247 0.00965394770084008 0)
(-0.00631617312115863 0.0108510064063672 -1.38639990843848e-20)
(-0.00770616254103703 0.0120921116624324 -1.13532288155575e-19)
(-0.00907770821908711 0.0133167588505868 3.57595037381208e-23)
(-0.0103863392101309 0.0145068093259477 -7.69304087724241e-23)
(-0.0115798590120517 0.0156326313540439 8.50525191489036e-23)
(-0.0126039525463761 0.0166583167626111 -4.53051767114707e-23)
(-0.0133047865467319 0.017411589076026 -2.05711448226165e-19)
(-0.0137071677876885 0.0178306323550487 2.14044109906137e-19)
(-0.0140161314876719 0.0180703270539753 2.7516146035652e-23)
(-0.0143288243186424 0.0182511746270308 -2.85304598529871e-23)
(-0.014716425813608 0.0184639733242247 2.37221900334162e-19)
(-0.0152579990638714 0.0188056584777242 2.49775662173724e-19)
(-0.0160660808472385 0.0194146110044456 -6.88528172857549e-20)
(-0.0174969115735458 0.0207531095436803 0)
(-0.0191743123139203 0.0227256537015982 0)
(-0.0208156215690134 0.025274507976673 0)
(-0.0222210605391596 0.0284347863657343 2.32967829241716e-19)
(-0.0230054592979448 0.032150657941947 2.87258557267139e-24)
(-0.0222452243994416 0.0357301886675489 0)
(-0.0179144172333285 0.035636417417793 -3.27955538348579e-19)
(-0.010796650300088 0.0301035050792599 0)
(-0.00689941388933416 0.0319298361596692 1.00032320338086e-19)
(-0.00291480411472137 0.0287231742836675 -1.38355944381856e-23)
(-0.000498043486357592 0.0218929997862542 2.95611017825029e-24)
(-7.50280792110188e-05 0.0178582526563876 0)
(-7.93025428165385e-05 0.0640117826245282 0)
(0.000383663569453213 0.0632820550088183 -7.22271308010323e-24)
(0.00305481238538113 0.0444840995068106 -1.40156533544543e-24)
(0.00341004068837298 0.0204290421729899 5.28189284977299e-24)
(0.00161017959049668 0.00547673013704413 3.50691182150552e-24)
(0.000308931940461271 0.000768257913325909 -4.72739265395007e-21)
(8.20383757322008e-05 0.000146204628193927 -2.17636046059634e-21)
(9.39787553958882e-05 0.000130850966188398 -2.800907625662e-26)
(7.81701086454691e-05 0.000100720506981888 1.01652471459944e-21)
(5.66414256384781e-05 6.94345572750215e-05 -3.24738245767923e-22)
(4.93914014572207e-05 5.86664891448442e-05 0)
(4.7079920260429e-05 5.57653386373545e-05 -8.12821135383486e-22)
(4.71916435523936e-05 5.67836364183144e-05 -5.83599885697181e-22)
(5.05257104797203e-05 6.17956438153222e-05 6.29879961607591e-22)
(5.72560244882783e-05 7.10057957056733e-05 9.73517331116719e-22)
(6.84609126796669e-05 8.58300758330332e-05 -3.00977856243362e-22)
(8.6043599247582e-05 0.000108762148369468 3.7621210705079e-22)
(0.000112170445778495 0.000142639614264637 -1.91334792818681e-21)
(0.000149049847627222 0.000190361359757171 -2.18678197605915e-24)
(0.00019690438631196 0.00025382262471058 1.22487026005339e-24)
(0.000253997955397564 0.000334488184933429 4.41255500896155e-21)
(0.000317509797889859 0.000432974897470679 -2.67794765599191e-24)
(0.000380993590279134 0.000546400951241284 6.97838430629339e-21)
(0.000435001955111475 0.00066833475397019 4.45845796113104e-24)
(0.000469334456334036 0.000790534419299079 2.32234732914127e-21)
(0.000478514101263618 0.000907223605471994 1.29150621628987e-21)
(0.000464830109481792 0.00101504365400688 -1.01667562151995e-18)
(0.000426876769299667 0.00110510322676922 -9.41414913999235e-19)
(0.000368058106594431 0.00117602126886261 -1.24676348917053e-20)
(0.000295933375383334 0.00123917495334634 -1.91621294403884e-19)
(0.000218808085411317 0.00132765492730667 3.47556114929973e-21)
(0.000140320847146315 0.00150572347548576 0)
(6.17177310358694e-05 0.00194542270927136 -7.48898973747376e-23)
(6.12477964457314e-05 0.00286020167531713 0)
(7.27683458687905e-05 0.00401230116481771 -3.98247977524196e-18)
(8.12229244905008e-05 0.00530603389961076 -5.31227209380452e-18)
(8.83017761694362e-05 0.00673163284627247 -3.25016551769473e-23)
(9.38028674556732e-05 0.00825459216336358 7.18805326215194e-23)
(9.82913754569386e-05 0.00985779405045118 7.20630034481221e-24)
(0.000102084287691826 0.0115270133330829 -1.00654735914527e-22)
(0.000105451242631768 0.0132545850662213 -7.73123097104037e-24)
(0.000108530061102422 0.0150353665153604 6.18007890951686e-23)
(0.000111377341150541 0.0168656917116226 -7.79234527709491e-23)
(0.000113994481174952 0.018742246112767 7.79234527708008e-23)
(0.000116344277872493 0.0206611875253727 0)
(0.000118375152748272 0.0226179526158282 0)
(0.00012002729842298 0.0246069256135636 0)
(0.000121246621352455 0.0266215641658714 0)
(0.000121988493898307 0.0286544363001044 -1.3012249074187e-22)
(0.000122223818405615 0.0306975078915385 1.30122490739422e-22)
(0.000121934251973321 0.0327423546111189 -5.37563720190261e-18)
(0.000121096405651417 0.0347803313884113 -5.61888475295805e-18)
(0.000119646937250518 0.0368024982319786 0)
(0.000117675059886429 0.0387997035676923 0)
(0.000114858108463747 0.0407604043970901 0)
(0.000111064912025821 0.042665600509172 0)
(0.000106636327015031 0.0445049190447636 0)
(0.000101610511063332 0.0462679752063869 -1.03066133453718e-22)
(9.60392003075934e-05 0.0479451633730263 1.03066133454613e-22)
(8.99799640605814e-05 0.0495277240867518 0)
(8.34965447583226e-05 0.0510078661249286 1.12945998999493e-22)
(7.66569348426972e-05 0.0523788554841258 -5.50679604173062e-23)
(6.95316469181503e-05 0.0536350763103052 -5.78780385821798e-23)
(6.21920478124782e-05 0.054772065124325 0)
(5.47087621210084e-05 0.0557865184100882 -6.12951447928102e-23)
(4.71502498097059e-05 0.0566762752935969 9.23748238462818e-23)
(3.95815387645221e-05 0.0574402786418508 -3.10796790536733e-23)
(3.20631670755726e-05 0.0580785158158701 0)
(2.46503470496106e-05 0.0585919442077267 -7.9905428437617e-24)
(1.73923135246055e-05 0.0589824032577997 7.9905428437617e-24)
(1.03318997361161e-05 0.0592525169647299 8.0540622162165e-24)
(3.50531187190967e-06 0.0594055900784888 -8.05406221621634e-24)
(-3.05792619441227e-06 0.0594455011694876 0)
(-9.33488726411131e-06 0.0593765949005584 -3.2134799697268e-23)
(-1.53090427605252e-05 0.05920357582224 9.61238008202485e-23)
(-2.09699399109891e-05 0.0589314051721274 -3.84356421163854e-25)
(-2.63128656473953e-05 0.05856520340348 -4.82286497420813e-25)
(-3.13383336460029e-05 0.0581101564189384 -6.31223582045e-23)
(-3.60517635759606e-05 0.0575714334532437 0)
(-4.04628953976958e-05 0.0569541028366498 0)
(-4.45857114491906e-05 0.0562630678643929 1.20656641766054e-22)
(-4.84374248607055e-05 0.0555029848551379 -1.775611694536e-24)
(-5.20392584722168e-05 0.0546782308694838 -1.18881030071022e-22)
(-5.54144750892122e-05 0.0537927973207151 0)
(-5.8590825406663e-05 0.052850319386559 0)
(-6.15967081457682e-05 0.0518538938594152 0)
(-6.44665614797689e-05 0.0508062264195553 0)
(-6.7233362144965e-05 0.0497092855228255 0)
(-6.99391761259192e-05 0.0485646744185079 -2.06289072393141e-22)
(-7.26219922507763e-05 0.0473729718620419 5.32433171630313e-24)
(-7.53332335358483e-05 0.0461344839665939 2.00964740674836e-22)
(-7.81158669617465e-05 0.0448480883921687 1.89714513477399e-22)
(-8.10334053908453e-05 0.0435125848619122 -3.73488006648465e-22)
(-8.41310220937003e-05 0.0421247605712731 3.61378862130079e-22)
(-8.74900661089601e-05 0.0406817638423212 -3.48796343042788e-22)
(-9.11456646361154e-05 0.0391777340994134 1.71190974093016e-22)
(-9.52015073726705e-05 0.03760837124581 1.57528801968297e-22)
(-9.96472872292886e-05 0.0359645234010238 -7.30570995638007e-24)
(-0.000104620164219504 0.0342416939989465 -1.50223092010465e-22)
(-0.000109971504231035 0.0324265700907467 0)
(-0.000115471711289586 0.0305185058890773 0)
(-0.000120695786722249 0.0285129858045553 0)
(-0.000126571606794291 0.0264221433032455 0)
(-0.000132218698592977 0.0242115393318507 -1.96403960996581e-22)
(-0.000137916366268282 0.0219206463550498 2.17376743323915e-17)
(-0.000143964587793997 0.0195086981800379 1.92117473254534e-17)
(-0.000148570106663667 0.017010815837406 -1.55071365800702e-22)
(-0.000221217798955097 0.0144324334582184 -2.45677485817107e-21)
(-0.00114145089719985 0.0149747524452725 1.24666478693934e-22)
(-0.00255420098553787 0.0170092287029552 -1.59145262785868e-22)
(-0.00452154487206691 0.0200502599246119 -2.49547850994564e-20)
(-0.00705881199931947 0.023499046123411 2.24562605608268e-22)
(-0.0101387709282659 0.0271472670451316 3.54743898042539e-20)
(-0.0137086581142509 0.0308578689866719 -2.16401471078938e-19)
(-0.0177531266215258 0.0346572560485051 -3.15345274154747e-22)
(-0.0224075891919479 0.0388524816633472 4.01469297832928e-22)
(-0.0273625798210444 0.0432861126100633 -4.06809634506713e-19)
(-0.0323212681678249 0.0477554908579563 2.37040112328198e-22)
(-0.0371346246930261 0.052198079584105 -6.6521797961777e-19)
(-0.0416476906004284 0.0565422421413168 -7.3012728761251e-19)
(-0.0456924549836024 0.0606819345628718 7.89704308831891e-19)
(-0.0487337441848531 0.0640251285567702 1.99324892757535e-19)
(-0.0508209326145594 0.0663236680471076 -1.07604281454299e-18)
(-0.0526750501488202 0.0681122568018417 -1.86146174279345e-22)
(-0.0547084987791371 0.0698853432365649 -9.24081872793833e-19)
(-0.0572233418363105 0.0720073795594677 -1.18802253660451e-18)
(-0.0606852199441878 0.0750298384396024 -2.4198139278242e-19)
(-0.0657021313972001 0.0796761032393154 0)
(-0.0742761454040351 0.0884224308291766 -1.32112359891735e-22)
(-0.0859428327683576 0.102175745628455 5.98184587043108e-23)
(-0.100162371065057 0.121841795899187 8.08678335769046e-23)
(-0.117020109878357 0.149682719546615 2.01457318508078e-18)
(-0.136136581265151 0.189442587553415 5.16456535498088e-23)
(-0.15262452052324 0.242764282178509 -3.07728783435138e-18)
(-0.149004400747915 0.293369091890578 -1.77479163015807e-18)
(-0.100851202346602 0.28576357465518 -1.63576107401359e-18)
(-0.0461512036056715 0.223689579836318 6.09925280823186e-19)
(-0.0145975855533993 0.149625613071972 5.3064716545161e-23)
(-0.00223524449764256 0.0924635460485326 1.50517325190577e-20)
(-0.000419102595678345 0.0692625380191947 0)
(-0.000325612795764438 0.15611046889542 0)
(0.000548508948228772 0.153669421562077 -5.29462671707318e-23)
(0.00670119030285369 0.109753651878281 -1.65015455665982e-19)
(0.00782383230031466 0.0514669118672236 0)
(0.00379926827450585 0.0142418962716321 0)
(0.000788759773412647 0.00219418349955726 1.89314981838385e-20)
(0.00023607216654504 0.000441136330482562 2.10878079946074e-21)
(0.000250081018402436 0.000350506273790554 0)
(0.000206909166812998 0.000269078263004759 -1.42458362343687e-21)
(0.000150751297617651 0.000186571449626724 -1.81202380892831e-25)
(0.000129910810093541 0.000155164819532887 1.75011503046281e-25)
(0.000121745511429185 0.000144655230853776 7.87262371622035e-22)
(0.000120388595550012 0.000145027387732819 7.81257417264375e-22)
(0.000127608654016436 0.000155928983007837 -8.33150290285788e-22)
(0.000143602855405393 0.000177547355375493 -9.43167380271732e-22)
(0.000170941343450567 0.000213188903312764 0)
(0.000214265994727843 0.000268881651157642 2.58693248422697e-24)
(0.000278897539062716 0.000351573061495912 -3.51782324375422e-21)
(0.000370292395340927 0.000468472771042831 -1.2271197962718e-24)
(0.000488905482856247 0.000624205108492298 4.39248706212e-24)
(0.000630381033361574 0.000822333856478909 -4.26806127859889e-21)
(0.00078756513015997 0.00106433422820037 1.58265507786609e-20)
(0.000944397503698656 0.0013432511513363 -6.73360502613762e-21)
(0.00107749582431245 0.00164341564053905 -2.35457656541204e-20)
(0.00116175837945093 0.00194452285386043 3.12203552578876e-23)
(0.00118387000907087 0.00223224272570181 4.2988261907736e-24)
(0.00114922127869382 0.00249801987071742 1.00737339217317e-18)
(0.00105485003555412 0.00272091381132803 1.05792732012875e-18)
(0.000909883006515082 0.0028978503285648 -1.81601732093818e-20)
(0.00073424134641505 0.00305783496509429 -3.89208169441055e-23)
(0.000550196737207414 0.00328347991060628 -3.38060027531086e-21)
(0.000371838551171856 0.00374148606205395 -5.61384625511664e-21)
(0.0002049723840604 0.00485721651873984 -9.83124018329184e-22)
(0.000230004024707159 0.00711048290981385 7.56910793001745e-23)
(0.000272430112869038 0.00992386672163175 3.93592337355399e-18)
(0.000303085439690644 0.013063868092371 5.07616247099477e-18)
(0.000328639109177434 0.0164983671944267 0)
(0.000348381506367242 0.0201442349149397 2.86417943556012e-22)
(0.000364524072739839 0.0239602173726511 -2.86417943557496e-22)
(0.000378182442232607 0.0279136130680439 0)
(0.000390362524871995 0.0319870206997215 0)
(0.000401536533335577 0.0361691661231594 0)
(0.000411909038103898 0.0404520587670105 0)
(0.00042147079551114 0.044828506197978 0)
(0.000430084417389259 0.0492900633599456 0)
(0.000437557287819806 0.0538266503068008 0)
(0.000443671423598107 0.0584258285691944 0)
(0.000448228323102435 0.0630731095971985 -4.36550358503666e-22)
(0.000451064992653741 0.0677520528968323 4.3655035850755e-22)
(0.000452074507274084 0.0724449227170973 0)
(0.000451192078847631 0.0771332220008817 0)
(0.000448362845066273 0.0817982011866442 -5.64667000801437e-22)
(0.000443529195292958 0.0864206286637881 -3.15214106786135e-23)
(0.000436396471011766 0.0909776916387723 5.96188411473869e-22)
(0.000425904867125165 0.0954338857172571 -3.28735880402768e-22)
(0.000412202361307801 0.099759484251366 3.2873588039932e-22)
(0.000396226920684127 0.103932314791591 0)
(0.000378065540184537 0.107930264457836 0)
(0.000357900814537526 0.111732949083347 0)
(0.000335935653871466 0.115321835464459 0)
(0.000312395671799958 0.118680483116329 4.06653915808223e-22)
(0.000287522402689435 0.121794714927266 -4.06653915808965e-22)
(0.000261567252224383 0.124652730234527 0)
(0.00023478562771724 0.127245163495249 0)
(0.00020743128445413 0.129565089471811 2.20939880424826e-22)
(0.00017975124740996 0.131607978999602 -2.20939880424455e-22)
(0.000151981247343367 0.133371612312185 0)
(0.000124341868493979 0.134855952641968 0)
(9.70354535870727e-05 0.136062990442534 0)
(7.02436397895009e-05 0.136996561455821 0)
(4.41256881306347e-05 0.137662146439799 0)
(1.88175127312585e-05 0.138066658754696 0)
(-5.56868677073672e-06 0.138218225896864 0)
(-2.89442879697261e-05 0.138125969334702 0)
(-5.12436963151326e-05 0.137799786939344 -2.31609903808519e-22)
(-7.24233414090693e-05 0.137250140894803 4.6193303444065e-22)
(-9.24606024402624e-05 0.136487856038901 -2.30323130631667e-22)
(-0.000111352091411382 0.135523924962743 0)
(-0.000129112581866578 0.134369334989616 -4.48815840118796e-22)
(-0.000145773018330304 0.133034890727257 4.48815840117982e-22)
(-0.000161380250542573 0.131531073812761 0)