/*--------------------------------*- C++ -*----------------------------------*\
| =========                 |                                                 |
| \\      /  F ield         | OpenFOAM: The Open Source CFD Toolbox           |
|  \\    /   O peration     | Version:  3.0.1                                 |
|   \\  /    A nd           | Web:      www.OpenFOAM.org                      |
|    \\/     M anipulation  |                                                 |
\*---------------------------------------------------------------------------*/
FoamFile
{
    version     2.0;
    format      ascii;
    class       volVectorField;
    location    "30000";
    object      grad(p);
}
// * * * * * * * * * * * * * * * * * * * * * * * * * * * * * * * * * * * * * //

dimensions      [0 1 -2 0 0 0 0];

internalField   nonuniform List<vector> 
21000
(
(0.23699830809553 0.00341152757696484 0)
(0.168749184407438 0.00152341719551257 0)
(0.166899674224496 0.00709939242637168 -1.36210822619767e-19)
(0.264471322093543 -0.00946641242680476 1.6393061535915e-19)
(0.192311043610996 -0.0221532272912664 1.18394031419053e-15)
(0.110757495806179 -0.0235952905862137 0)
(0.053573605418149 -0.0152879922816929 2.27148804397806e-19)
(0.0332689669739128 -0.00934993175831803 -7.80128173051939e-20)
(0.0274388058888292 -0.00698366859488924 2.53294281378664e-15)
(0.0236498416508132 -0.00559771154142107 -2.47480675050592e-15)
(0.0203104756604931 -0.00441984072930879 2.92777859953719e-19)
(0.0168242805287823 -0.00299244085733644 -4.59123554063093e-15)
(0.0143927303217961 -0.00184317953977739 -5.34537799766591e-19)
(0.0127887996663165 -0.00103520509702342 2.09591797228906e-15)
(0.011615668054832 -0.000424986401033115 -2.01102006919707e-15)
(0.0108760527217603 7.4840417837284e-06 0)
(0.0105395619930114 0.000256402714834944 0)
(0.010613048868702 0.000311420907442022 -1.80390718032028e-15)
(0.0111331788354456 0.000111804390495238 1.74734840346113e-15)
(0.0117473367923597 -0.000199751081792292 1.65718217296414e-18)
(0.0123881339659732 -0.000560769449093722 1.60429106385868e-18)
(0.0129186742904959 -0.000903029403656118 1.58227075173845e-15)
(0.013141337688288 -0.00113147853144233 2.98386342269388e-18)
(0.0128959926787744 -0.00116610161927669 -1.43496709974573e-18)
(0.0120116323690795 -0.000925827786734828 0)
(0.0108646466409838 -0.00056135061620629 -6.79031725590663e-16)
(0.00966108239618549 -0.000222272817615349 -6.57435761093959e-16)
(0.00818682348803886 0.000126283700618991 2.4769567596184e-18)
(0.0067123988423253 0.000394264181893607 0)
(0.00467543146396992 0.000676744529103593 0)
(0.00345675418557679 0.000742294788939536 2.3289098244755e-18)
(-0.00172264771068416 0.00126851034017187 1.46931160639319e-16)
(-0.00260003443045057 0.00168944672555823 -8.58305098251222e-14)
(0.00179534121898731 0.00159484161974431 -8.72818928180518e-14)
(0.00447946566936183 0.00141697668568166 1.15859456078626e-18)
(0.00909659240703787 0.00115558927789995 -1.15859456078625e-18)
(0.0135346520390978 0.000891965271198936 1.16036032377802e-18)
(0.0183808288535291 0.000622722538332574 1.43413179580287e-21)
(0.0230130795303843 0.000378158167021501 1.79555499574363e-21)
(0.0275721270320338 0.000155551951450165 -2.32933128777401e-18)
(0.0318947159457119 -3.95945446185664e-05 -2.48852903317598e-21)
(0.0360375026296917 -0.000211541664688261 1.16822980623219e-18)
(0.039969479228149 -0.000361515788150525 0)
(0.043719082885725 -0.000492969223032926 -1.17757122156308e-18)
(0.0472840464401316 -0.00060786274164396 -3.68925443865348e-21)
(0.0506756012329068 -0.000708372161877775 2.36647482650562e-18)
(0.0538922416123144 -0.000795885956689453 8.83251104938762e-14)
(0.0569341623590236 -0.000871622627648715 8.95334008624344e-14)
(0.0597959942359813 -0.000936398452388855 -1.19386138550323e-18)
(0.0624720930735377 -0.000990877454757546 -1.20340113763307e-18)
(0.064954793799382 -0.00103554214498895 1.20340113764649e-18)
(0.0672363900046449 -0.00107079832818897 -6.06857560961708e-19)
(0.0693088786032815 -0.00109699015906161 -9.06111504095965e-14)
(0.0711653219093422 -0.00111450166866352 -9.16872626316893e-14)
(0.072800496255481 -0.00112371155392557 -6.12337687001988e-19)
(0.0742110106959476 -0.00112500134805165 0)
(0.0753949668164305 -0.00111876539911975 0)
(0.0763523689555062 -0.00110545527497584 9.05855189584597e-30)
(0.0770852773754792 -0.00108555375480392 -9.10212916599115e-30)
(0.0775977445846728 -0.00105957525915188 0)
(0.0778957231872036 -0.00102805847275791 0)
(0.077986937654964 -0.00099155946702287 3.1805421171245e-19)
(0.0778807018326671 -0.000950643400983603 -3.18054211711293e-19)
(0.0775877191050116 -0.000905876352248975 3.21086749138344e-19)
(0.0771198545110362 -0.000857817210929268 -3.21086749138301e-19)
(0.0764899025303479 -0.000807010055759047 9.66161451670584e-14)
(0.0757113504389595 -0.000753977442020983 4.8906263704548e-15)
(0.0747981464396415 -0.000699214387972718 -9.28733451834312e-14)
(0.0737644815693438 -0.000643183562028576 8.17547103641025e-20)
(0.0726245855288701 -0.000586311427248716 0)
(0.0713925430545359 -0.000528985443848869 0)
(0.0700821322945494 -0.000471552201990029 8.31584641867181e-20)
(0.0687066863743865 -0.000414316515219835 -8.31584641963776e-20)
(0.0672789812727461 -0.000357541248064987 0)
(0.0658111416210879 -0.000301447913086026 0)
(0.0643145803974187 -0.000246217563474687 0)
(0.0627999401142623 -0.000191992608283297 0)
(0.0612770873708494 -0.000138877864428218 0)
(0.0597550689857391 -8.69437276875098e-05 0)
(0.0582421802164054 -3.62260004016065e-05 0)
(0.056745879964882 1.32685063738624e-05 0)
(0.0552729983994788 6.15668307737555e-05 0)
(0.0538294965588972 0.000108717145389001 0)
(0.0524209672207158 0.000154806664626613 0)
(0.0510519888700546 0.000199930065653582 0)
(0.0497272848790701 0.0002442393705507 1.04519280302434e-13)
(0.0484501070032238 0.000287866193291879 2.08917013708516e-13)
(0.0472248968820428 0.000331045888398131 1.04343600764141e-13)
(0.0460534367761595 0.000373931124391846 0)
(0.0449408888052254 0.000416884769967054 -1.40964347058491e-18)
(0.0438868859498304 0.00046004761261164 1.40964347056961e-18)
(0.042899211082881 0.000504009485206591 1.41641480295457e-18)
(0.0419734446583557 0.000548812743849679 -1.41641480294178e-18)
(0.0411238067794913 0.000595462386387577 0)
(0.0403370352093368 0.000643685047717805 0)
(0.0396420405959818 0.000695347545525244 -1.42913854613692e-18)
(0.039004712995002 0.000749275895594478 2.86132036630322e-18)
(0.038487388381322 0.000809193602975328 -1.43218182016899e-18)
(0.0380063895771425 0.000871478304791381 1.43815011244342e-18)
(0.0376994337700995 0.000944072880554019 -1.43815011246898e-18)
(0.0373657442403565 0.00101698372008417 1.44400694075404e-18)
(0.0373174264817506 0.00110805532549713 -2.89092550797924e-18)
(0.0370841180523071 0.00119123146599274 2.89673055742805e-18)
(0.037351846560185 0.00130720238039336 -1.44981199022485e-18)
(0.0370566490541109 0.00138970519935991 0)
(0.0376852580242764 0.00153332786831556 1.4585579079062e-18)
(0.0368701487117755 0.00158413059446817 2.8767284111557e-21)
(0.0373848825267303 0.00188129824050707 -1.4604502753991e-18)
(0.0393539619543386 0.0028562423097134 2.93068281869517e-18)
(0.0406322627103806 0.00416028766895093 3.75042930582324e-16)
(0.0432328173757595 0.00572157496838895 0)
(0.0447222953654198 0.00719728271069742 7.8710909455699e-16)
(0.0462032506849987 0.00866556363654615 0)
(0.0465647444095746 0.00977368399065257 8.41377196550523e-16)
(0.0463057297389961 0.010526800779715 8.71687863225287e-16)
(0.0445388215335204 0.0104903868685325 1.82081190754247e-15)
(0.040516395091625 0.00928541581243109 -3.80260180966965e-15)
(0.0341757395684258 0.00686494752524661 0)
(0.0253421046083627 0.00318832594940149 -2.06157287802374e-15)
(0.0142425449398331 -0.0015638920384023 0)
(0.000932389483086713 -0.0072333379198914 0)
(-0.0131930822374225 -0.0130370850751038 2.2801292816617e-15)
(-0.0259125316161296 -0.0181843431491056 2.29854179507207e-18)
(-0.0385153279086093 -0.0234785249808665 0)
(-0.0540040933059739 -0.0301488861411951 0)
(-0.0722936196406995 -0.0382045523448331 0)
(-0.0984056743807547 -0.0498574054697052 0)
(-0.134614839064184 -0.0662554269870614 -6.05591612523392e-19)
(-0.198786999521197 -0.0947029611476256 2.9177187624624e-15)
(-0.303409198364139 -0.137445631564857 -3.00373089509122e-15)
(-0.442292127820073 -0.189175032723086 0)
(-0.626269406266078 -0.249978891679543 2.47517029038153e-18)
(-0.872695210370543 -0.317334090286436 -8.67314068091385e-20)
(-1.16436781405059 -0.366546548145885 -2.73953302415148e-15)
(-1.37421550550205 -0.333714679508637 2.45125035247212e-15)
(-1.09464018103771 -0.141106516698142 1.26776765783076e-19)
(-0.276449429834796 0.0378673911865526 -4.9256489125167e-16)
(0.235722160926146 0.0551424418289034 2.48037360202081e-16)
(0.445903028653539 0.0314678871783855 -6.1158797193183e-20)
(0.389641537355794 0.0102121036314886 0)
(0.236506523918392 0.00774746834793517 0)
(0.168937142297706 0.00476878636843902 0)
(0.166783093346473 0.0139662295580391 0)
(0.26135237494351 -0.0174452579258601 5.51127018509609e-16)
(0.184913650027161 -0.0413687599763697 0)
(0.100433858834312 -0.0447242132306739 0)
(0.0454280162015798 -0.0294887507089475 2.46499014714241e-15)
(0.0274612790019713 -0.018052085059759 0)
(0.0227426262287625 -0.0132224691484044 1.84421226387261e-20)
(0.0198607352210078 -0.0103635145843898 4.7948934256468e-15)
(0.0174592232580499 -0.00799961436484849 -2.83599846139776e-19)
(0.0151183030788241 -0.00524252006550037 2.22430035515246e-15)
(0.0135743237302613 -0.00302147766597842 -2.12096224374293e-15)
(0.0125664074282787 -0.00145791752572652 2.02756473269282e-15)
(0.0118260467202688 -0.00027944390914936 1.94934081079674e-15)
(0.0113815846753991 0.000565231382464403 1.87323416669821e-15)
(0.0112140126081612 0.00107699272737357 -1.80855020405605e-15)
(0.0113281003244112 0.00124137482455765 -1.70909820919985e-18)
(0.0117417175357632 0.000951671728544646 -9.80922054369875e-22)
(0.0121875788805154 0.0004487167468124 1.60580431758551e-18)
(0.0126343762154931 -0.000151896862937206 1.55459789940636e-18)
(0.0129903559617812 -0.00073493208067596 -1.53932567318351e-15)
(0.0131101339012393 -0.00114080545507395 1.44530275761758e-18)
(0.0128677414273964 -0.00123206136205308 0)
(0.0120956524729302 -0.000862927028167774 -1.36918878877551e-15)
(0.0110663367577868 -0.00027728368843664 -6.58212828528137e-16)
(0.0099304664931288 0.000266256777982285 -2.48055264056329e-18)
(0.0084862752107978 0.000810686576316325 -6.96507985995457e-14)
(0.00699272671842784 0.00121592330848361 1.1060390407452e-15)
(0.00490261079079809 0.00161160446289991 7.33347807855034e-14)
(0.00361606852429724 0.00170372204602101 -2.25758940938649e-18)
(-0.00158452624066507 0.00242198646718381 -2.24300094131904e-18)
(-0.00252381911039823 0.00306284610083203 8.45956903384891e-14)
(0.00182464199318345 0.00325810403749713 8.32682645761283e-14)
(0.00449037163228813 0.00304175163677302 0)
(0.00911019499149883 0.00281575835722078 0)
(0.0135460010158796 0.00255198736566244 0)
(0.0183925875281454 0.00230577075859237 0)
(0.0230244165975386 0.00207682387434472 -8.2019708811004e-30)
(0.0275834128555799 0.00187442058890763 1.13030382316439e-18)
(0.0319055029113298 0.001693654960123 -1.1303038231734e-18)
(0.0360476492808477 0.00153210839368398 1.13544331364848e-18)
(0.039978697423817 0.00138478686362568 -1.13544331366164e-18)
(0.0437272021796307 0.00124828550655455 0)
(0.0472908975816584 0.00111930137648463 0)
(0.0506810768089923 0.000995585377178141 0)
(0.0538962629184719 0.00087537624818093 -8.65070570849806e-14)
(0.0569366923722856 0.000757560963615303 -8.59400895466313e-14)
(0.059797027031759 0.000641423433250536 0)
(0.0624716549976727 0.000526626622562267 0)
(0.0649529381014967 0.000413091021718572 7.52521911857457e-14)
(0.0672331943125257 0.000300957234595771 7.62135681336529e-14)
(0.0693044372742182 0.000190482919452993 8.85111835754206e-14)
(0.0711597469522089 8.1869096252214e-05 8.82413772218162e-14)
(0.0727939210203542 -2.45252681601551e-05 5.93717795004869e-19)
(0.0742035839984383 -0.00012819333298403 0)
(0.0753868442020849 -0.000228669993541838 0)
(0.0763437090911698 -0.000325531201160197 -8.78294488741047e-30)
(0.0770762410049104 -0.000418369778213051 8.82519631638369e-30)
(0.0775884909040553 -0.000506814185647081 0)
(0.0778864070135727 -0.000590535395175787 -6.13808874634596e-19)
(0.0779777067942183 -0.000669252515121439 9.22187730983279e-19)
(0.077871694827284 -0.000742736063833233 -3.08378856346497e-19)
(0.0775790633628479 -0.000810809565388846 0)
(0.0771116648498709 -0.000873349416467395 0)
(0.0764822801272857 -0.000930283614606091 -9.38407378657006e-14)
(0.0757043821793715 -0.000981589324083618 -4.4601160215322e-15)
(0.0747919046450835 -0.00102728953602351 8.99300208030399e-14)
(0.0737590240571317 -0.00106744918015897 -9.24835930324024e-30)
(0.0726199559767552 -0.00110217071015159 0)
(0.0713887716244656 -0.00113158932685849 0)
(0.0700792364637721 -0.00115586803457138 9.36723660644709e-30)
(0.0687046719264169 -0.00117519268064158 0)
(0.0672778434044969 -0.0011897670751841 0)
(0.065810866132847 -0.00119980811860745 0)
(0.0643151449105047 -0.00120554132299778 -3.2754226335451e-19)
(0.062801315320814 -0.00120719618985911 3.27542263354509e-19)
(0.0612792382243922 -0.00120500229323175 0)
(0.0597579558920431 -0.00119918505854712 6.6203664181747e-19)
(0.0582457601104481 -0.00118996269902064 -6.620366418163e-19)
(0.0567501074292679 -0.00117754153257517 -6.66385374355703e-19)
(0.0552778265225423 -0.00116211422165805 6.66385374358571e-19)
(0.0538348780011523 -0.00114385416464176 6.70511626702513e-19)
(0.0524268548078368 -0.00112291493900009 -6.70511626705299e-19)
(0.051058336643947 -0.00109942297917541 0)
(0.0497340484854097 -0.00107347862691882 -1.00632009488283e-13)
(0.0484572446631411 -0.00104514413774409 -2.02514248305778e-13)
(0.0472323697988726 -0.00101445061040138 -1.01921297683377e-13)
(0.0460612096002359 -0.000981371835093007 3.48374050790342e-21)
(0.0449489313920244 -0.000945848660737085 -1.36333267970555e-18)
(0.0438951716660689 -0.000907722647351633 -1.37005221231702e-18)
(0.0429077225572212 -0.000866833793830796 1.3700522123428e-18)
(0.0419821632232007 -0.000822820286945069 0)
(0.0411327330503438 -0.000775447336771698 0)
(0.040346157157432 -0.000724025379953492 0)
(0.039651389804678 -0.000668240000693281 0)
(0.0390142725763593 -0.000606819808842198 0)
(0.0384972407350618 -0.000539596130565219 0)
(0.0380164833023635 -0.000464494216836626 0)
(0.0377099503748093 -0.00038183644346956 0)
(0.0373765036674602 -0.000288407144543611 0)
(0.0373287743396688 -0.000186226948336797 0)
(0.0370956101277213 -7.00418996677101e-05 0)
(0.0373640068386457 5.37344821369316e-05 0)
(0.0370684493803913 0.000190040769662009 0)
(0.037698473290499 0.000326323537603142 0)
(0.0368989923268398 0.000486689593167518 -2.83390260829558e-18)
(0.0374961119561484 0.000773878304095348 2.55114913038888e-17)
(0.0395848537499911 0.00239749425269123 0)
(0.0408067500069949 0.00460858190711066 0)
(0.0431253892279608 0.00728743759970454 7.45351898795144e-16)
(0.0441575142201591 0.00986191887154006 -7.63113945505466e-16)
(0.044992562745586 0.0124432268902675 -7.86177435589173e-16)
(0.0446351835749713 0.0144253005114193 8.14106783927351e-16)
(0.0436414002837946 0.0157910994639202 0)
(0.0413347173482032 0.0158032134313066 -1.76656245363117e-15)
(0.0373041968699627 0.013825659369273 -9.29769489003083e-20)
(0.0316590828043504 0.00978123680781338 1.87741134235212e-18)
(0.0243254249796559 0.0036056660941856 -3.90143877885647e-18)
(0.0154867638835416 -0.00441282154998116 4.04736850844112e-18)
(0.00512644581477708 -0.0139951723123945 -2.09365318883288e-18)
(-0.0057842139865324 -0.0238386062652739 -2.21119511270413e-15)
(-0.0155262815306215 -0.032707995548066 2.27866504255408e-15)
(-0.0249710657217185 -0.0420750417862928 1.14690076396413e-18)
(-0.0363144408744928 -0.0540440893397615 -1.18917838854476e-18)
(-0.049358438748317 -0.0687621263699846 2.51899450222738e-15)
(-0.0676493100832147 -0.090233231500629 2.61424964006966e-15)
(-0.0925483028188123 -0.120914438772146 -2.71810117800828e-15)
(-0.136753063105182 -0.174043546172823 0)
(-0.211276596174293 -0.253718628261237 0)
(-0.315441191992173 -0.350821017228127 0)
(-0.463902251505957 -0.465256443960384 2.92996547786379e-15)
(-0.681019071056918 -0.589523379684066 4.42463984017678e-20)
(-0.970950902322399 -0.670021245962202 0)
(-1.23535392842263 -0.577745763804173 -1.18705821299228e-15)
(-1.05985111144033 -0.178190596301549 0)
(-0.286579197024174 0.148420339949803 4.77540864203199e-16)
(0.228925864330803 0.13773457765669 -1.75915771150646e-19)
(0.443269428388721 0.0695698456045332 5.93198031268292e-20)
(0.388155193820119 0.0244564344366713 0)
(0.235990026304971 0.0122723199412763 0)
(0.169161943182927 0.00986760081759148 -6.31890628899984e-20)
(0.166498588644062 0.0173812043013222 -6.47731222281295e-20)
(0.261360127971258 -0.0104562155956427 -2.39101216093916e-21)
(0.187248400889029 -0.0326329617359887 1.34709885451301e-19)
(0.104445060497096 -0.0375320429513823 -1.16285224694284e-15)
(0.0483577486121376 -0.0261591021697141 -2.38785074759735e-15)
(0.0290371260415309 -0.0166346954331548 -7.32080217217135e-20)
(0.0237463906828427 -0.0123107863068566 -1.22134010706438e-19)
(0.0206055896111549 -0.00970859709107186 -2.32245379673308e-15)
(0.0180443190271754 -0.00755153854228814 0)
(0.0155152499496251 -0.00501547227878088 -2.15454731424685e-15)
(0.0138088470030541 -0.00293202982167295 5.25224818358025e-19)
(0.012689393965537 -0.0014531689545465 -8.33340019595514e-21)
(0.0118732781516391 -0.000333182405308822 1.88676444660297e-15)
(0.0113688040049077 0.000469401700004613 -1.81582311486997e-15)
(0.011158077561852 0.000962321791879095 1.75232213401561e-15)
(0.0112351073568642 0.00112559058895306 -1.69363852330225e-15)
(0.0116333098085627 0.000857945069940285 -3.21057584501743e-18)
(0.0120748797489632 0.000371382666379781 1.55600024365463e-18)
(0.0125220565421309 -0.00022211237999853 1.54203639109896e-15)
(0.012882613578917 -0.000811659968915198 -1.45444576934023e-18)
(0.013009532646171 -0.00124397601772467 1.43763340897984e-15)
(0.0127791398492989 -0.00138170956613863 1.34997956876533e-18)
(0.0120106947929783 -0.00107631466720283 1.32190797223033e-15)
(0.0109746681562467 -0.000545930029976275 6.3802512030569e-16)
(0.00984240813768982 -2.71790914767315e-05 -1.0717499638494e-13)
(0.00840618691027012 0.000505619047237998 -3.9610432533459e-14)
(0.00693171878416128 0.000932555767173311 -3.72085860711366e-15)
(0.0048511260639853 0.00133213362859801 -6.97832192083945e-14)
(0.00361646551544214 0.00156303385235965 2.78027915847881e-16)
(-0.00155337692405265 0.00229267169277436 0)
(-0.00247786075363338 0.00258368084837259 -1.74089093910395e-17)
(0.00185056605263706 0.00272753984804394 0)
(0.00449092428178286 0.00244431896766868 -1.05614708373745e-13)
(0.00911590000802306 0.00214594445660925 -1.07374395215412e-13)
(0.0135514057668108 0.0018490195386861 -1.09088734196921e-18)
(0.0184007341233952 0.00159744074212433 2.18312374649704e-18)
(0.0230333116812092 0.00137742243484728 1.68870322463534e-21)
(0.0275932077679523 0.00119214114743921 -2.18987323068255e-18)
(0.0319152528534828 0.0010296646925244 -2.33988889226383e-21)
(0.0360571155705795 0.000886396417858274 1.09828801180287e-18)
(0.0399874469317625 0.000755555467932571 -1.10386327164305e-18)
(0.0437350605920401 0.00063428888026771 1.10386327164095e-18)
(0.0472976770978886 0.000519362914575522 0)
(0.050686692761725 0.000409298171244986 0)
(0.0539006486352994 0.000302756129945706 0)
(0.0569398302082145 0.000199172279896347 0)
(0.0597989209816166 9.81480881976489e-05 -1.12676407587521e-18)
(0.0624723390995971 -3.72564700976379e-07 1.12676407585401e-18)
(0.0649524673234123 -9.63239126606867e-05 -7.35912572365589e-14)
(0.0672316424079776 -0.000189479845430462 -7.32671683962202e-14)
(0.0693018801338389 -0.000279715698051621 0)
(0.0711562729701538 -0.000366936927544904 0)
(0.0727896488151516 -0.00045078044036124 0)
(0.0741986439705778 -0.000530774825487982 0)
(0.0753813649446709 -0.00060674456882413 0)
(0.0763378223383761 -0.000678450392177526 -5.86616590640016e-19)
(0.0770700800121674 -0.000745677934219761 5.86616590645108e-19)
(0.0775821875196199 -0.000808243858700564 0)
(0.0778800893432355 -0.000866001109099414 5.9514072613105e-19)
(0.0779714971122321 -0.000918840013392974 -2.9614122947245e-19)
(0.077865707729581 -0.000966689022361584 -2.98999496658585e-19)
(0.0775734042474411 -0.00100951446558458 0)
(0.0771064286984229 -0.00104731890605961 -3.03261806048215e-19)
(0.0764775506163556 -0.00108013986572097 4.55593584652999e-19)
(0.0757002311184586 -0.00110804692439192 -1.52331778605777e-19)
(0.0747883917089936 -0.00113113915015398 0)
(0.0737561968032051 -0.00114954187659712 -3.85967154150515e-20)
(0.0726178501162691 -0.00116340329971789 3.85967154150515e-20)
(0.0713874115128603 -0.00117289079102685 3.89266480902495e-20)
(0.070078635768887 -0.00117818726431317 -3.89266480902487e-20)
(0.0687048344341901 -0.00117948744624315 0)
(0.067278763945747 -0.00117699438857129 -1.57595041808196e-19)
(0.0658125315575354 -0.00117091550229909 4.73991398269017e-19)
(0.0643175351486201 -0.00116145991984217 1.17887117143449e-21)
(0.062804404388245 -0.00114883369747872 1.15113711371765e-21)
(0.0612829953267156 -0.00113323911366019 -3.18726364746472e-19)
(0.0597623463032495 -0.00111486791304477 0)
(0.0582507463669135 -0.00109390470422306 0)
(0.0567556498844254 -0.00107051366835754 6.46105877911906e-19)
(0.05528388478118 -0.00104485300467835 2.02658817266063e-21)
(0.0538414108230626 -0.00101704505130468 -6.48132466081815e-19)
(0.0524338222566359 -0.000987215315777792 0)
(0.0510656986104065 -0.00095542586931094 0)
(0.0497417687418766 -0.000921767074629404 0)
(0.0484652862460437 -0.000886211843926166 0)
(0.0472407037255221 -0.000848820232180459 0)
(0.0460698034118889 -0.000809423809435993 -1.32184173453394e-18)
(0.0449577687250716 -0.000768070940812476 -3.29610998677348e-21)
(0.0439042229731863 -0.000724362303029708 1.32513784450749e-18)
(0.0429169913467891 -0.000678467503972783 1.33150320206012e-18)
(0.0419916166586552 -0.000629565885744241 -2.66608504858786e-18)
(0.0411424082601035 -0.000577970439378848 2.67218007729642e-18)
(0.0403560070359687 -0.000522147823556585 -2.67815519006612e-18)
(0.0396615276495683 -0.000462912024816986 1.3405569593662e-18)
(0.0390245960366963 -0.000397261306253277 1.34632588708342e-18)
(0.0385079991660053 -0.000327363995069413 2.82324065942687e-21)
(0.0380274179369971 -0.000247653484271534 -1.34914912772967e-18)
(0.0377216138698925 -0.000163632013397761 0)
(0.0373881987134936 -6.42169832908708e-05 0)
(0.0373417537575789 3.64591314547116e-05 0)
(0.0371081934107818 0.00016380812670908 0)
(0.0373788098781624 0.000281040274538753 -2.73128533022914e-18)
(0.0370816092486367 0.000443680896606165 1.34727491804138e-13)
(0.0377174217945023 0.0005637935391326 1.32845882266155e-13)
(0.0369168360268566 0.000807204725353212 -2.74225321584663e-18)
(0.0375689105330591 0.000788748161758245 -2.47404557040007e-17)
(0.039765071266752 0.00227337087595343 2.74931472307041e-18)
(0.04108885387606 0.00424124709696924 -2.77940408834087e-18)
(0.0434914634951568 0.0067906166136468 -7.19843106697171e-16)
(0.0446037911105132 0.0092390937049231 2.89377262453175e-18)
(0.0455070056004097 0.0117061807331971 7.6218065386521e-16)
(0.0452013597603288 0.0135696657235834 -1.57842865529097e-15)
(0.0442389110329847 0.0148071060956016 -3.20214454648322e-18)
(0.0418876897871673 0.0147252427113194 3.34823192401848e-18)
(0.0377304225147849 0.0127239922766043 -5.31590930963512e-18)
(0.0318688912138055 0.00876438108206189 1.81650067102237e-18)
(0.024203888912374 0.00283201131186796 -1.9341185927887e-15)
(0.0149273580142098 -0.00477947244625801 -2.0102446042518e-15)
(0.00404001317231184 -0.0137524388200092 2.07737054643674e-15)
(-0.00734980413800914 -0.0229100514599068 2.1425459424172e-15)
(-0.0174870242569537 -0.0312313814216555 -4.41331659088683e-15)
(-0.0274139027461965 -0.0401580503818117 -1.11642191880064e-18)
(-0.0394503271487061 -0.0515564552540439 -2.35686816156869e-15)
(-0.0534277321284943 -0.0656363929264435 -4.88039948002127e-15)
(-0.073284218605325 -0.0860534220813188 -2.53267177226022e-15)
(-0.100757906172169 -0.115248664850953 0)
(-0.150166800027924 -0.164563778110154 -6.62744856041801e-19)
(-0.233069100076885 -0.236178789180475 3.52144824990352e-19)
(-0.348611267025543 -0.32032049493593 3.5176991190078e-19)
(-0.512604388328819 -0.414059989848803 2.82962630071138e-15)
(-0.750222362770412 -0.502932546600469 1.23836021649772e-19)
(-1.06189265568392 -0.524540615832081 -2.55763883961577e-15)
(-1.3338730571503 -0.35384673449809 -1.14632651591248e-15)
(-1.13191348421396 0.0868862589008219 -1.00135525973574e-15)
(-0.316421875651805 0.335175521645761 4.63700173159083e-16)
(0.219464973484872 0.206439130400588 1.13067775026505e-19)
(0.439671840446894 0.0828037989435482 2.97956734083053e-17)
(0.386492946258746 0.0281679756000437 0)
(0.235540651503522 0.0193062930931854 0)
(0.169331557871201 0.0160308724305555 -1.22541494545239e-19)
(0.166326278570135 0.0228956016410561 -2.51502370086966e-16)
(0.260771641425787 -0.00657297940414945 0)
(0.187725821790729 -0.0293304122094129 0)
(0.107007970076158 -0.0330271359421749 2.25378714016194e-15)
(0.05071553747865 -0.0235129059937844 2.31374498196008e-15)
(0.0302949351182384 -0.0155488493918904 0)
(0.024416198772875 -0.0117864599285849 -2.30236402669898e-15)
(0.0210615224770593 -0.0093866216186797 -2.74787350596982e-19)
(0.0184136416419406 -0.00734708440528718 2.65399091386805e-19)
(0.0158012462254707 -0.00491200180440859 2.08651525970431e-15)
(0.0140032821180702 -0.00288679207661917 1.99134484585432e-15)
(0.0128171134831635 -0.00144010544566041 -1.90481593541397e-15)
(0.0119535163273584 -0.000343355443607697 -1.82794350281476e-15)
(0.0114047077562332 0.000437586530167933 0)
(0.0111523018771322 0.00091387554312116 1.65849745292238e-18)
(0.0111856744195122 0.00106736223573707 -3.2257181745271e-18)
(0.0115492946818322 0.000797324194652679 -9.16422872403229e-22)
(0.0119635520639121 0.0002985205583435 1.5077215869992e-18)
(0.012386475313501 -0.000319568880611737 -1.49277276421161e-15)
(0.0127302686451701 -0.000945267397028707 1.44130159471361e-15)
(0.0128519048532162 -0.00142461008803071 -1.38778518628805e-15)
(0.0126320366696981 -0.00161650372489929 -1.34082270207305e-15)
(0.0118752258029316 -0.0013707393841126 2.51314764094329e-18)
(0.0108457863982743 -0.000884567967301005 1.63460819057643e-21)
(0.00972665338518479 -0.000384326837323699 1.06069150365739e-13)
(0.0083062729250708 0.000140766167793579 1.0306278339238e-13)
(0.00685303803289186 0.000587320801051498 -5.6052078137642e-16)
(0.00478440244980663 0.000956218503881871 -2.15247171564622e-18)
(0.00359684592567899 0.00130028622829702 -2.71695814749679e-16)
(-0.00158282834558948 0.00180644671571705 -1.34992474637949e-16)
(-0.00246607764550274 0.00172424993364165 -1.89901336155425e-17)
(0.00186872210245347 0.00172999862299146 2.11133324583649e-18)
(0.00448746847619094 0.00145719458486134 1.04082112058116e-13)
(0.00911913888036858 0.00112498798727436 1.02429703700114e-13)
(0.0135593897435759 0.000868680934979404 0)
(0.0184136635464253 0.000675424624838874 2.11807751419698e-18)
(0.02304818154716 0.000528925719063799 -2.11807751420796e-18)
(0.0276090182567103 0.000414351985763647 0)
(0.0319306471363756 0.000316012924980993 0)
(0.0360716302185635 0.000227116889691518 0)
(0.0400006436986991 0.000140936973839342 0)
(0.0437468263271772 5.54205727083164e-05 0)
(0.0473079219933226 -3.14901960152695e-05 0)
(0.0506954308323992 -0.00011999579711093 0)
(0.0539079003885285 -0.000210365625049874 0)
(0.0569456492694476 -0.000302210770177814 -1.08826708488984e-18)
(0.0598033653119442 -0.000395200035657768 1.08826708489952e-18)
(0.0624754825593001 -0.00048878623003611 0)
(0.0649543914301179 -0.00058246508778232 0)
(0.0672324247705417 -0.000675680786885599 -1.1063518395936e-18)
(0.0693015955950689 -0.000768140021984239 -4.92523170654534e-21)
(0.0711550299295635 -0.000859174396628477 1.11127707128863e-18)
(0.0727875859700432 -0.000947732271280974 -5.60753502560125e-19)
(0.0741958849315637 -0.00103326615060996 5.60753502554243e-19)
(0.0753780244774513 -0.00111551627392616 0)
(0.0763340288936296 -0.00119396623995037 0)
(0.0770659638699887 -0.00126813572398339 0)
(0.0775778784591491 -0.00133757488918455 0)
(0.0778757142910123 -0.00140187771930532 5.77043615456878e-19)
(0.0779671780995778 -0.00146068725673033 -5.7704361545793e-19)
(0.0778615599669966 -0.00151370114075144 0)
(0.0775695344947352 -0.00156067600629398 0)
(0.0771029338804319 -0.00160142916974715 2.94038601294838e-19)
(0.076474516757188 -0.00163584089365644 -2.94038601294343e-19)
(0.0756977326176643 -0.00166385302334987 0)
(0.0747864908994593 -0.00168546773045616 0)
(0.0737549438356355 -0.00170074433618049 0)
(0.0726172831225855 -0.00170979506160488 0)
(0.0713875570128144 -0.00171277968975538 0)
(0.0700795092820429 -0.00170989973811906 0)
(0.0687064412529378 -0.001701391969465 0)
(0.067281100066577 -0.00168752193879319 0)
(0.0658155846522172 -0.00166857640518254 -3.06770727883206e-19)
(0.0643212856807078 -0.00164485797148866 6.14684276625111e-19)
(0.0628088266166629 -0.00161667576584812 -3.0791354874129e-19)
(0.061288058499018 -0.00158434348486479 0)
(0.0597680155014262 -0.00154816679107021 -6.22360693358937e-19)
(0.0582569838827653 -0.00150844841923919 6.22360693357808e-19)
(0.0567624155951827 -0.00146546529756991 0)
(0.0552911379262724 -0.00141949218785345 0)
(0.0538491094971523 -0.00137075290543987 0)
(0.052441926151437 -0.00131948311081645 0)
(0.0510741667667468 -0.00126582659664851 -6.34004573483272e-19)
(0.0497505645815122 -0.00120997649807228 6.34004573489788e-19)
(0.0484743717471026 -0.00115195952996897 1.27498994684149e-18)
(0.047250049708064 -0.00109193266910104 3.35803874297165e-21)
(0.0460793759172048 -0.00102974933249073 -1.27834798559777e-18)
(0.0449675499371984 -0.000965609598238679 -1.2848186476687e-18)
(0.0439141749573437 -0.000899117462648885 1.28481864765488e-18)