/*--------------------------------*- C++ -*----------------------------------*\
| =========                 |                                                 |
| \\      /  F ield         | OpenFOAM: The Open Source CFD Toolbox           |
|  \\    /   O peration     | Version:  4.1                                   |
|   \\  /    A nd           | Web:      www.OpenFOAM.org                      |
|    \\/     M anipulation  |                                                 |
\*---------------------------------------------------------------------------*/
FoamFile
{
    version     2.0;
    format      ascii;
    class       volScalarField;
    location    "30000";
    object      k;
}
// * * * * * * * * * * * * * * * * * * * * * * * * * * * * * * * * * * * * * //

dimensions      [0 2 -2 0 0 0 0];

internalField   nonuniform List<scalar> 
21000
(
1.09960235960065e-05
1.23911771564401e-05
8.12434108812462e-06
3.3651500299975e-07
1.51705730173696e-06
2.65508427953115e-06
1.46856170927081e-06
7.69482341660152e-07
5.30982792333653e-07
4.05862998745994e-07
3.12168600826366e-07
2.32658184121133e-07
1.84313451666131e-07
1.5952874796935e-07
1.50987861366081e-07
1.59333196404349e-07
1.86724057504673e-07
2.36217913587419e-07
3.09666557055458e-07
3.96860720471252e-07
4.9033798683243e-07
5.779236017748e-07
6.42186613467622e-07
6.68025228734972e-07
6.49187088106156e-07
6.06861627086264e-07
5.54924944128748e-07
4.91676154132204e-07
4.35185566490531e-07
3.84174066991216e-07
3.88578951495119e-07
3.68541211379831e-07
7.17911710061885e-07
1.70460949893895e-06
2.88368798108227e-06
4.42747086156181e-06
6.10880948754428e-06
7.93036840908936e-06
9.77227593556342e-06
1.16163998874859e-05
1.34122446603531e-05
1.51481519603945e-05
1.68031811787488e-05
1.83692828600394e-05
1.98349850710419e-05
2.11926733211102e-05
2.24334489136773e-05
2.35498149372881e-05
2.45342856998368e-05
2.53805635166146e-05
2.60833082431273e-05
2.66386821514938e-05
2.70443696393888e-05
2.72997977725952e-05
2.74059871137976e-05
2.73655908312605e-05
2.7183967579078e-05
2.68678177747453e-05
2.64254181133717e-05
2.5866406369454e-05
2.52015451157081e-05
2.44424683123178e-05
2.36014155923297e-05
2.26909697579185e-05
2.1723802417974e-05
2.07124380529776e-05
1.9669040943977e-05
1.86052296887748e-05
1.75319225625392e-05
1.64592139885169e-05
1.53962826634332e-05
1.43513298280062e-05
1.33315456045364e-05
1.23431007325498e-05
1.13911597418146e-05
1.04799137745934e-05
9.61262655297322e-06
8.79169527089145e-06
8.01871492277933e-06
7.29455672889003e-06
6.61943544453166e-06
5.9930015098199e-06
5.41439464197769e-06
4.88235445815718e-06
4.3952375681739e-06
3.95116820478304e-06
3.54797771810573e-06
3.1834500598494e-06
2.85509987187333e-06
2.56063224237706e-06
2.29738390677327e-06
2.06325499576829e-06
1.85544308424005e-06
1.67237808860811e-06
1.51099395734426e-06
1.37075259288872e-06
1.24789662927516e-06
1.14382896081073e-06
1.05307126875579e-06
9.8078516574146e-07
9.17444800845444e-07
8.76235111166881e-07
8.38165446000765e-07
8.33097941863005e-07
8.19381923381347e-07
8.64937405765256e-07
8.6692483058883e-07
9.77517619004965e-07
1.18159972122849e-06
1.28212573515826e-06
1.39417561496932e-06
1.36579284656254e-06
1.28040126778124e-06
1.10630713156807e-06
9.07814330519053e-07
6.98563668132208e-07
9.15997258490485e-07
1.53515814627169e-06
2.51977062086667e-06
3.96134557577896e-06
5.93617604190644e-06
8.35385646784871e-06
1.09375319900706e-05
1.36553676243248e-05
1.67669513770794e-05
2.03460796178268e-05
2.49669153748112e-05
3.10691909816013e-05
4.10829546626124e-05
5.80197753436903e-05
8.39490480914162e-05
0.000123396124745207
0.000185308688001816
0.000279029829014141
0.000393254043545526
0.000410011507978025
0.000248064856599192
0.000103998724800512
3.00271859239201e-05
1.15006718402237e-05
1.88692755609715e-05
1.89676523705953e-05
1.31211104158639e-05
5.44571710666924e-06
1.63406441598274e-06
5.79794843803305e-07
2.61319769825158e-07
1.5652057097875e-07
1.11331074035396e-07
8.35409587742153e-08
6.70555893032813e-08
5.50139908976086e-08
4.89355453542606e-08
4.80035119864052e-08
5.13630379320769e-08
5.98854583376213e-08
7.52170888971487e-08
9.94140417230328e-08
1.34511414420529e-07
1.80311285135516e-07
2.3680579168258e-07
3.02807335161761e-07
3.74336355210749e-07
4.45635974734015e-07
5.1106283601558e-07
5.70400771927675e-07
6.2363218565613e-07
6.65121520323866e-07
6.96573663530762e-07
7.23592592693737e-07
7.70633064855797e-07
8.581302461736e-07
1.13659159694694e-06
1.77594351066783e-06
2.5741503362054e-06
3.50560346437412e-06
4.53194542058598e-06
5.63502862083483e-06
6.78720607555502e-06
7.97785383553574e-06
9.19495702288189e-06
1.04338448689719e-05
1.16892362172187e-05
1.2958038923831e-05
1.42363377624664e-05
1.55204127689417e-05
1.68057487717015e-05
1.80875223759902e-05
1.93604011789891e-05
2.06188879727794e-05
2.18573975161212e-05
2.30704194485468e-05
2.42523273042806e-05
2.53968223482099e-05
2.64966089029333e-05
2.75432635636188e-05
2.85316359609435e-05
2.94568680664299e-05
3.03147905267682e-05
3.11019317624793e-05
3.18155515737077e-05
3.24536530539935e-05
3.30149760432537e-05
3.34989753869171e-05
3.39057848463357e-05
3.42361693105859e-05
3.44914680141492e-05
3.46735302816557e-05
3.47846473434164e-05
3.48274813263319e-05
3.48049938919598e-05
3.47203761633125e-05
3.45769814972064e-05
3.43782620409318e-05
3.41277098238342e-05
3.38288029001108e-05
3.34849571772633e-05
3.30994828540727e-05
3.26755484667341e-05
3.22161457853016e-05
3.17240652760151e-05
3.12018643375131e-05
3.0651859782162e-05
3.00760839789327e-05
2.94763092257184e-05
2.88539632541577e-05
2.821021535651e-05
2.75458028016458e-05
2.68612372936278e-05
2.615645950872e-05
2.54312521945195e-05
2.46846212792652e-05
2.39155380723409e-05
2.31218905202273e-05
2.23017888616055e-05
2.14517316394611e-05
2.05691131416244e-05
1.96487337460678e-05
1.8688009905319e-05
1.76796344573513e-05
1.66234058734655e-05
1.5515481779998e-05
1.43630909849298e-05
1.31492299519667e-05
1.18971450025028e-05
1.05852919628017e-05
9.22223390808151e-06
7.82660638125632e-06
8.18266253587128e-06
9.30983888362598e-06
1.09551399317428e-05
1.27669087355865e-05
1.46360489303116e-05
1.64658386609545e-05
1.8258547953202e-05
2.01773687532642e-05
2.21859099983365e-05
2.41452039335742e-05
2.600582051313e-05
2.77440275070011e-05
2.93356361136356e-05
3.048959412521e-05
3.10666682911772e-05
3.13481491929042e-05
3.16139110264099e-05
3.20204201165401e-05
3.28505141101151e-05
3.43771031392759e-05
3.78362283241914e-05
4.38519434052225e-05
5.28529137987823e-05
6.60955531529194e-05
8.60183394550017e-05
0.000114653120530488
0.000145651438198135
0.000144711137082537
0.00010075079256892
5.66184056683158e-05
2.91648208895089e-05
2.02335233465257e-05
0.00012826293993764
0.000127325470881046
8.90219860618751e-05
4.04266379780877e-05
1.08698874530161e-05
1.67193240271072e-06
4.12439330070878e-07
3.53116780538012e-07
2.74332902645636e-07
1.99104347640273e-07
1.73088198894851e-07
1.66057022055412e-07
1.71419760546993e-07
1.90286485335878e-07
2.23964771588891e-07
2.78278909451482e-07
3.63118897227507e-07
4.90487304611831e-07
6.73421034267922e-07
9.21071436075482e-07
1.24127323545105e-06
1.6380160100738e-06
2.10050513756441e-06
2.60248951551317e-06
3.10903204982984e-06
3.59587445702249e-06
4.04817999709201e-06
4.42557542712861e-06
4.72081522323725e-06
4.97579663536859e-06
5.32390108613988e-06
6.00409287710553e-06
7.72968277794242e-06
1.1445166240945e-05
1.61340200945001e-05
2.14288094239682e-05
2.72776112633081e-05
3.35436021291617e-05
4.01471405488864e-05
4.70289439878279e-05
5.41528609034776e-05
6.14966025152953e-05
6.90429259687619e-05
7.67773075999696e-05
8.46826964114512e-05
9.27394645350893e-05
0.000100923484527022
0.000109206923089562
0.00011755823127398
0.000125943452977242
0.000134327047121878
0.00014267254100249
0.000150941184633648
0.000159087814913012
0.000167085921681355
0.000174846072956163
0.000182323762236567
0.000189476322229455
0.000196264481569799
0.000202652671038874
0.000208609517643854
0.000214108197475923
0.000219126665942814
0.000223647773296552
0.000227659266303156
0.000231153684740316
0.000234128167917857
0.000236584177284034
0.000238527157829991
0.000239966146000546
0.000240913341688969
0.000241383657957654
0.00024139426210232
0.000240964117790288
0.000240113537874144
0.000238863753702448
0.000237236512223208
0.00023525369140668
0.000232936967725718
0.000230307475584909
0.000227385555157815
0.000224190422505655
0.000220740056201656
0.00021705076058408
0.000213137322624856
0.00020901223933322
0.000204686401444344
0.00020016758113236
0.000195462144803123
0.000190572093278157
0.000185498580986798
0.000180236553635644
0.000174781270687057
0.000169118964034516
0.0001632386954756
0.000157115536010114
0.000150733728067818
0.000144054116669809
0.00013706235835375
0.000129700480114685
0.00012197453073543
0.000113858037229949
0.000105415357183468
9.64927152036175e-05
8.72752676553638e-05
7.75709192842792e-05
6.75236701940415e-05
5.71838768723532e-05
5.96280240178665e-05
6.7937222116603e-05
8.0138646933185e-05
9.37463217435553e-05
0.000107833093482893
0.000121713942252524
0.000135357556927302
0.0001499097988217
0.00016458509769036
0.000178417503957675
0.000191100898165903
0.000202365991282086
0.000211920028092479
0.000217740214617908
0.000219216743359265
0.000218488055337413
0.000217302580119899
0.000216729298293525
0.000218280584987984
0.00022359344056972
0.000239198151228148
0.000266430665973496
0.000306353421234484
0.000363584888955023
0.000446694879607387
0.000560159254053281
0.000667290853033804
0.000637866603849051
0.000482045454908347
0.000310253505177708
0.00018576044210195
0.00013820554350119
0.000484948532070629
0.000479882897700429
0.00033795374423981
0.000155792329176038
4.25736735602895e-05
6.47585882692294e-06
1.42245619930566e-06
1.23479561054721e-06
9.77367476790222e-07
7.07442744751685e-07
6.17579885386175e-07
6.00474476063462e-07
6.26400307597895e-07
6.99896061035452e-07
8.26885552985791e-07
1.02887847586155e-06
1.34268711979548e-06
1.81321786092868e-06
2.49016471588365e-06
3.41098383266323e-06
4.60747521377539e-06
6.09804453391121e-06
7.84692284511307e-06
9.7586766168577e-06
1.17007730388403e-05
1.35735004350972e-05
1.53153640580377e-05
1.67762856639782e-05
1.79228398058344e-05
1.89170500724118e-05
2.02631469299601e-05
2.2917395137106e-05
2.95362260980657e-05
4.35016529005103e-05
6.10897037946076e-05
8.08697192389416e-05
0.000102662629405738
0.000125947731738296
0.000150448621577857
0.000175947930279636
0.000202322279891538
0.000229492278119112
0.000257399318391365
0.000285992068465938
0.000315210653858194
0.000344984897382291
0.000375228504256349
0.000405841397476248
0.000436710054647208
0.000467712041623684
0.00049871916957155
0.000529600117637723
0.000560219171761662
0.000590437108887368
0.000620077797913168
0.000648856646877951
0.000676617822141448
0.000703205388657144
0.000728475445504377
0.000752297103370083
0.000774554293643022
0.000795147073458482
0.000813992504435214
0.000831025127944224
0.000846197038726355
0.000859477584673479
0.000870852743879047
0.000880324198409028
0.000887908182947749
0.000893634134042166
0.000897543200765234
0.000899686664813881
0.000900124318016405
0.000898922832011131
0.000896154154580437
0.000891893954684936
0.000886220156470865
0.000879211531698399
0.000870946469230649
0.000861501714404321
0.000850951411555371
0.000839365879843074
0.000826811136385979
0.00081334730374754
0.00079902906323119
0.000783902918487934
0.000768009426653612
0.000751377985667622
0.000734032457619667
0.000715981225979508
0.000697228552933845
0.000677757139137705
0.000657548518246795
0.000636553859275689
0.000614729806131505
0.000591987609244667
0.00056826211444178
0.000543414958404195
0.000517378132715604
0.000489950525208164
0.000461122085545989
0.000430823015255998
0.000399237708815399
0.000365847312916573
0.000331249394791297
0.000294830014418699
0.00025710668256242
0.000218216764274182
0.000227247029693428
0.000258715868354989
0.000304978432791528
0.000356579268801484
0.000409936655617521
0.000462522665704283
0.000514280291456287
0.000569240933254652
0.000624312408842239
0.000676028610127856
0.000723296694150331
0.000765107771839826
0.000800220432097897
0.000821367787270611
0.000826671518228417
0.000824005466799496
0.000819674597979863
0.000817696602329243
0.00082363009846933
0.000843896344002293
0.000901818537157809
0.00100146122419239
0.00114616391514098
0.00135146709937081
0.00164476058718873
0.00203497679500058
0.00239019467279424
0.00227852113473328
0.00174613223826598
0.00114892069661304
0.000702583195948987
0.000524545553030024
0.00129826490094157
0.00127940095643424
0.000914097263231475
0.000430472249886824
0.00012052343023908
1.90049290584217e-05
4.01081458855599e-06
3.32219591522168e-06
2.65306937528083e-06
1.92247695114435e-06
1.67017775247592e-06
1.62130431127851e-06
1.68871913716507e-06
1.88291161829132e-06
2.21975156229745e-06
2.75581124056953e-06
3.58907873165943e-06
4.83984044256553e-06
6.64291852362181e-06
9.10252465879072e-06
1.23066332364588e-05
1.63081983007891e-05
2.10175390580054e-05
2.61833524456221e-05
3.1449169517432e-05
3.65373417879461e-05
4.12728364613016e-05
4.52635973281588e-05
4.84195337086915e-05
5.11959012443905e-05
5.49614583235297e-05
6.24612607399876e-05
8.07865573962394e-05
0.000118316826162767
0.000165217423660245
0.000217600471033913
0.000274940675263422
0.000335854959328087
0.000399648462812692
0.000465773474025056
0.000533934479716877
0.000603940967813611
0.000675656361909066
0.000748958526332676
0.000823703923204359
0.000899721913891199
0.000976802038806433
0.00105469946891996
0.00113313647759696
0.00121181359401127
0.00129041841398874
0.00136863386512915
0.00144613337475315
0.00152252954809449
0.00159726297945485
0.00166980091076764
0.00173976755134619
0.00180678942224128
0.00187052235541498
0.00193065358562848
0.00198690585917613
0.00203904033362872
0.00208685849469952
0.00213020314542131
0.00216895848232291
0.00220304932825405
0.00223243964134269
0.00225713034674828
0.00227715666859551
0.00229258501782198
0.00230350957028499
0.00231004864130388
0.00231234096116843
0.00231054192631983
0.00230481989988466
0.00229535261041788
0.00228232373415648
0.00226591959621631
0.00224632625089288
0.00222372648705131
0.00219829747830925
0.00217020785052834
0.00213961636089046
0.00210666814014516
0.00207149534529216
0.00203421094931426
0.00199491304003454
0.00195367350948258
0.00191054901058963
0.00186556039826633
0.00181871406420187
0.00176996818782417
0.00171926833576163
0.00166649586272048
0.00161152529131204
0.00155414165843808
0.00149414693099164
0.00143121007223185
0.00136508962672962
0.00129531732100027
0.00122172367605895
0.00114417263012515
0.00106289645314099
0.00097680825098489
0.000887004802651933
0.000792312909493959
0.000693684300570188
0.000591414191138634
0.000612992641603718
0.00069506689290367
0.00081587982933035
0.000950461599492212
0.00108931206799865
0.00122611970150502
0.00136095950143834
0.00150330757714541
0.00164548531723
0.00177906872557208
0.00190126075679781
0.00200948757005161
0.00210027397515261
0.00215611276504648
0.00217268240656745
0.00216911671775421
0.00216101046147967
0.00215883747864609
0.00217670977671152
0.00223187200566412
0.00238135648349633
0.00263446745859565
0.00299755727589041
0.00350432861867552
0.00421072018361335
0.00511971349447861
0.00592582703062681
0.00567570488582595
0.00442172427142192
0.00298482335346221
0.00187817655664516
0.00141178976230053
0.00278139723229896
0.00272885827341879
0.00199878445088148
0.000976088328464207
0.000282992892676988
4.63038322081857e-05
9.43621003253287e-06
7.35648290077385e-06
5.92217832481561e-06
4.29890353287648e-06
3.71205688804562e-06
3.59121657116693e-06
3.73031067246768e-06
4.14730335152955e-06
4.87620638542123e-06
6.03860511956466e-06
7.84743103170788e-06
1.05655024146205e-05
1.44897977369293e-05
1.98534032517658e-05
2.68511692939315e-05
3.56010813022362e-05
4.59145757380461e-05
5.72502630265752e-05
6.88342652998601e-05
8.00516956994748e-05
9.05065293732199e-05
9.93752092643722e-05
0.000106491414018197
0.000112904590034784
0.000121690676983112
0.000139279206285277
0.000180763486926099
0.000262268055171524
0.00036258980506583
0.00047325558127101
0.000593026871229092
0.000719038516709176
0.000849941207349196
0.000984689477433339
0.00112275034685508
0.00126378282410432
0.00140754396220878
0.00155380720913395
0.00170229912890138
0.00185268916350514
0.00200456942246955
0.0021574664037941
0.00231084616243765
0.00246413682819568
0.00261674799884679
0.00276808218217921
0.00291741508747791
0.00306390899985897
0.00320664538916272
0.003344808040593
0.00347773723604922
0.00360479419522522
0.00372539809952965
0.00383902885085263
0.00394523271307687
0.00404362580886467
0.00413389596357468
0.00421580304654971
0.00428917789594796
0.00435391998432717
0.00440999404829673
0.00445742577479216
0.00449629683666153
0.00452673936140673
0.00454893003551716
0.00456308400016019
0.00456944868536849
0.00456829768034107
0.00455992473346015
0.00454463794326981
0.00452275424910178
0.00449459411391087
0.00446047678161011
0.00442071541166923
0.00437561313773783
0.00432545824230947
0.00427052167138806
0.00421105089103374
0.0041472701122948
0.00407937057625236
0.00400751544575365
0.00393182326134898
0.00385238057332556
0.00376921437652089
0.00368231440580435
0.00359159388496611
0.00349691889945216
0.00339806159200345
0.00329473253595738
0.00318652612790524
0.00307297027230695
0.00295344538776083
0.00282730322438211
0.00269368353808847
0.00255188186647232
0.00240154882913124
0.00224251179479481
0.00207312144207352
0.00189430843429887
0.00170455456153242
0.00150395672343005
0.00129451053989231
0.00132983259633696
0.00149406529555599
0.00173631091476828
0.00200551457327267
0.00228244960050575
0.00255545089415524
0.00282533389381817
0.00310866894179014
0.00339181197775796
0.00365939622837424
0.00390572470954049
0.00412568719258536
0.00431201970068549
0.00443326171290274
0.00448105546756452
0.00448931012327987
0.00448712674666972
0.00449545530239335
0.00454176490139267
0.00466126591383775
0.00496000137075585
0.00545487597199582
0.00615248426900015
0.0071033669728057
0.00838623599753559
0.00997429671509414
0.0113588176643824
0.0109952961542933
0.00876812151781261
0.00610043654002019
0.00398256475252631
0.00303670400962331
0.00502569120871358
0.00491081994158117
0.00372795881406023
0.00192501770115601
0.000589358664427921
0.000100255525938892
1.97053715425677e-05
1.42861009952807e-05
1.15904491168459e-05
8.43243047870511e-06
7.2325151259586e-06
6.96877677038454e-06
7.21709224809536e-06
8.00016095425626e-06
9.38109071242846e-06
1.15887023246729e-05
1.50274535433626e-05
2.01983992730784e-05
2.76692407623395e-05
3.78882640536478e-05
5.12231999723718e-05
6.7889483751208e-05
8.75267519415256e-05
0.000109111839912028
0.000131193622097131
0.000152610957345376
0.000172605136288147
0.000189716267848151
0.000203733530539542
0.000216806945388716
0.000235007701960696
0.000271179709216621
0.000352285482595903
0.000503714324548161
0.000685935558410943
0.0008834455108367
0.00109393647853497
0.0013125793973208
0.00153725394989
0.0017663495323761
0.00199907567201886
0.0022349182892908
0.00247349297696256
0.00271441958859452
0.00295723361965474
0.00320137786026561
0.00344618060933665
0.00369087959855719
0.00393463559431796
0.00417656924594989
0.00441578322770785
0.00465126240498716
0.00488189030945058
0.00510654137033877
0.00532407302535617
0.00553349579914591
0.00573396471352502
0.0059246899272201
0.00610497118864754
0.00627419910307898
0.00643185925179186
0.00657753374988967
0.00671090094684747
0.00683173351397619
0.00693989507068136
0.00703533555940479
0.00711808564594124
0.00718825024314393
0.00724600149766366
0.00729157131190892
0.00732524361256275
0.00734734652657712
0.00735824461169846
0.00735833122951855
0.00734802114189311
0.00732774338589052
0.00729793452246
0.00725903212740545
0.00721146893750233
0.00715566686573557
0.00709203197006633
0.00702094846281847
0.00694277514452513
0.00685783789938873
0.00676642859853151
0.00666879401707117
0.00656513822132965
0.00645560569996082
0.00634028787845892
0.00621919945157061
0.0060922847319722
0.00595939467368455
0.00582027806661746
0.0056745787216199
0.00552178445754125
0.00536127199800135
0.00519218973205186
0.00501358549571886
0.00482419652940382
0.00462269770838255
0.00440742355110234
0.00417747724899026
0.00393149025862804
0.00366734528640786
0.00338429586104371
0.0030806489078453
0.00275263472457404
0.00240650182994124
0.00244334305340003
0.00270348619606316
0.00309056173260091
0.00352097366696995
0.00396370796386011
0.00440217995176235
0.00483874275671937
0.00529591140695936
0.0057551714223714
0.0061943173208956
0.00660376714442774
0.00697515663890809
0.00729651593493187
0.00752346118474678
0.00764231834785707
0.00769903993694132
0.00773626511581725
0.00778737666294549
0.00789534474643622
0.00811755560793381
0.00861190813655006
0.00940491561595357
0.0104980802293616
0.0119470077967258
0.013834005006766
0.0160864941519212
0.0180441776796291
0.0177292646964736
0.0145931745512406
0.0104932345197921
0.0071030979315607
0.00550285092271536
0.00791519509199904
0.00769342341423756
0.0060888908445169
0.00338348509622314
0.00112250501090937
0.000200680432523121
3.806429860386e-05
2.52999873522815e-05
2.06679842014353e-05
1.50794482138913e-05
1.28389734962246e-05
1.23134366596124e-05
1.27122237027502e-05
1.40502248160077e-05
1.64325367956175e-05
2.02507975514119e-05
2.6202413083544e-05
3.51520218066914e-05
4.80754997486562e-05
6.57388195881e-05
8.87483107287079e-05
0.000117426282438032
0.000151112859896033
0.000188039545920625
0.000225763723358667
0.00026234665018178
0.000296527933797894
0.000326084015936278
0.000350949398725127
0.000375155627939293
0.000409472237885079
0.000476174497289808
0.000616764999807491
0.000864722722943528
0.0011550189392083
0.00146341286856495
0.00178641126615745
0.00211706823559693
0.0024524832489554
0.00279049909229662
0.00313008608359379
0.00347058387627572
0.00381149794330755
0.00415233888960082
0.00449251436576215
0.0048313258479475
0.00516794870351182
0.00550146636972428
0.00583088858075563
0.00615518576647454
0.00647327779051511
0.00678392420669141
0.00708597345366777
0.00737822432598947
0.00765954844623742
0.00792897043429267
0.00818563737990818
0.00842877351306572
0.00865770558080964
0.00887186329955483
0.00907078192412587
0.0092541024357401
0.00942157000058617
0.00957303093255277
0.00970842830071332
0.00982779637067992
0.00993125414730474
0.0100189980935639
0.0100912943640052
0.0101484706114972
0.0101909075662193
0.010219030548155
0.0102333010581164
0.0102342085324829
0.0102222623333604
0.0101979840350995
0.0101619000832292
0.0101145347093341
0.0100564034771705
0.00998800675119479
0.0099098239647342
0.00982230709945455
0.00972587616365123
0.00962091137072579
0.00950775017072007
0.00938667692712317
0.00925792081656783
0.00912164288580347
0.00897793184026828
0.00882679180106758
0.00866812521211175
0.0085017366049093
0.0083272757277624
0.0081442899149573
0.00795208020818726
0.00774985666280716
0.00753643854341974
0.0073106099684108
0.00707053796511626
0.00681450700438757
0.00653985988807055
0.00624504030676443
0.00592706425014437
0.00558337996050413
0.00521051965507186
0.00480637425068353
0.00436084909762261
0.00388520409908488
0.00389901263183012
0.00423347220814739
0.00474497167938958
0.00531997423356484
0.00591594427990673
0.00651265088515734
0.00711349783957854
0.00774346944151723
0.00838155647061714
0.00900053579907593
0.00958666956507646
0.0101282085583749
0.0106087803588142
0.010976169156135
0.0112118902437133
0.0113672219668317
0.0114940853080272
0.0116367728663891
0.0118516890806885
0.0122167150856618
0.0129290389624432
0.0140263199476748
0.0155024499678861
0.0174056356128588
0.0198047644090754
0.0225832442568899
0.0250069636048419
0.0249263778667808
0.0213058593904538
0.0159184671753427
0.0111308047969857
0.00871653109921724
0.0112308328742568
0.0108202550795078
0.0089038845673288
0.00536875228876537
0.00197393985360303
0.000381802337445024
6.99192499581164e-05
4.1906957540788e-05
3.43921091620109e-05
2.51825808108873e-05
2.12694269651056e-05
2.02898654699796e-05
2.08771984587111e-05
2.30073479206324e-05
2.68398543882473e-05
3.29978375618307e-05
4.25971958740531e-05
5.70167330184702e-05
7.77942138044427e-05
0.000106109074312147
0.000142835685872485
0.000188340121164061
0.000241434498798359
0.000299254298463763
0.000358030659901434
0.000414859299862454
0.000467934633802634
0.000514383706686129
0.000554779667278302
0.00059610948995664
0.000655662799301164
0.000767389106668195
0.000987414388245849
0.00135333583059567
0.00176964478015114
0.00220293236940493
0.0026483902414972
0.00309706380125059
0.00354547713804223
0.00399128137852492
0.00443358037519012
0.00487195198476647
0.00530616028858604
0.00573595557036234
0.00616094891966087
0.00658061115301411
0.00699425665747748
0.0074010835208422
0.00780019369669557
0.00819061823638279
0.00857125112437221
0.00894098386778203
0.00929870147477527
0.00964329761015113
0.00997375626907812
0.0102891840652893
0.0105887847249037
0.0108718442149655
0.0111377493253751
0.0113859897630953
0.0116161610438892
0.0118279650759786
0.0120212089430595
0.0121958021115668
0.0123517522045009
0.0124891595225113
0.0126082105838129
0.0127091707595756
0.0127923763497389
0.0128582261731306
0.0129071728692927
0.0129397140880625
0.0129563837231237
0.0129577432865103
0.0129443734967629
0.0129168661588586
0.0128758163970257
0.0128218151580847
0.0127554422972011
0.0126772596907454
0.0125878049567952
0.0124875846724706
0.0123770690273349
0.0122566841816659
0.0121268074473487
0.0119877586313214
0.0118397933940377
0.0116830954651643
0.0115177620684915
0.0113438039101918
0.0111611079705905
0.0109694641227372
0.0107684718903385
0.0105576344422696
0.0103361487829852
0.0101031395112121
0.00985723015988119
0.00959706012676427
0.00932043328802829
0.00902540530920761
0.00870863322684699
0.00836807189676872
0.0079994147902281
0.00759977057596612
0.00716319473482661
0.0066869822250838
0.00615493076119078
0.00558236446682321
0.00555007626266312
0.00591768680551943
0.00651005380689491
0.00719174899431938
0.00790918444605716
0.00863842976673366
0.00938217308383974
0.0101645287620837
0.0109636279710499
0.0117490901301928
0.012503377782004
0.0132116725800982
0.0138541685234613
0.0143758761572723
0.0147554788504818
0.0150445390687106
0.0152996884928972
0.0155730894461931
0.0159305943326621
0.0164652603413577
0.0173954183257818
0.0187696971181704
0.0205759369962842
0.022848846273074
0.0256353117152215
0.0287819405390559
0.0315305493356312
0.031752105425032
0.0281297008693155
0.0219587009661915
0.0158680735198993
0.0125009423796639
0.0148176991632919
0.0140937852992951
0.0119453201906065
0.0077906359931913
0.00321297827285772
0.000695589936235089
0.000124407311614055
6.61106951902089e-05
5.42522725172427e-05
3.99007082841557e-05
3.34061283433246e-05
3.16693871782223e-05
3.24677128772502e-05
3.56750419938681e-05
4.15122040300911e-05
5.09125562140355e-05
6.55545626756806e-05
8.74936514070915e-05
0.00011897220934427
0.000161629465752023
0.000216541630551365
0.000283913598062317
0.000361655132123934
0.000445388116755282
0.000529759265776942
0.000610891903534553
0.000686644839753154
0.000754023446104476
0.000815109077290865
0.000881060860352963
0.000977077739758438
0.00114928496798573
0.0014657537493339
0.00196269547779283
0.00251207580478544
0.00307178110799059
0.00363585621551773
0.00419438459677667
0.00474435984967292
0.00528425124900143
0.00581407570195089
0.00633424148106468
0.0068452078739376
0.00734728658576884
0.00784053431698416
0.00832477288797564
0.00879959364194452
0.0092644109131583
0.00971848860475864
0.0101609607593836
0.0105908297762579
0.0110070769403938
0.0114086710399341
0.0117946056717762
0.012163952871115
0.0125158767980979
0.0128496213317923
0.0131645125391538
0.013459973661286
0.0137355294990121
0.013990810274701
0.0142255531194382
0.01443960156931
0.0146329033089228
0.0148055063256283
0.0149575536622832
0.0150892770570239
0.0152009895618213
0.0152930774970079
0.0153659918436125
0.0154202392735635
0.0154563730128278
0.0154749837095216
0.015476690420724
0.0154621317946984
0.0154319575464867
0.0153868202764173
0.0153273675850717
0.0152542347307749
0.0151680374417626
0.0150693651720458
0.0149587741449424
0.0148367813360492
0.0147038571461531
0.0145604190445097
0.0144068246338589
0.0142433614676274
0.0140702433207857
0.0138875886625605
0.0136954294052848
0.0134936607278451
0.0132820823293805
0.0130602842962585
0.0128277645914629
0.0125836843016037
0.0123271428459161
0.012056681525474
0.0117708854209831
0.0114673859374806
0.0111441398200621
0.0107974427336564
0.0104249478087073
0.0100215375964155
0.0095841032511938
0.00910504305766575
0.00858105410795599
0.00799166455401022
0.00735497847825784
0.00726535508222372
0.00763077797898553
0.00826477162887325
0.00901829429014512
0.00982718066786294
0.0106629575552458
0.0115258762083519
0.0124371436405502
0.0133746119639286
0.0143059328373808
0.015210332805952
0.0160703337382825
0.0168635925092404
0.0175353769124308
0.018063459511936
0.0184975636970188
0.0188962099816692
0.0193168792913138
0.0198315838727329
0.0205434732141548
0.0216779936669367
0.0232926718878218
0.0253718056127406
0.0279356589419798
0.0310065132607498
0.0343993012324699
0.0373516019037567
0.0378379476045825
0.0344777561231985
0.0281000927947547
0.0210682851610724
0.0167143753102331
0.0186169050220386
0.0174468546549311
0.0150583223277022
0.010500395217803
0.00485711698520282
0.00120864212649415
0.000216683971748522
0.000100771313966639
8.20223173048719e-05
6.06440090800209e-05
5.02914808994005e-05
4.7327777826179e-05
4.83220827112277e-05
5.29326730033648e-05
6.14331587597908e-05
7.51484398662683e-05
9.64692982478693e-05
0.000128276965083352
0.000173606579657235
0.000234494480268237
0.000311989347490108
0.000405737751072414
0.000512249157304631
0.000625276715426912
0.000737897753381362
0.000845617229107819
0.000946537089739722
0.00103846928391505
0.00112607179982076
0.00122567843749558
0.00137082885048486
0.0016183345381491
0.00204353165209447
0.00267500900518257
0.0033526439261391