/*--------------------------------*- C++ -*----------------------------------*\
| =========                 |                                                 |
| \\      /  F ield         | OpenFOAM: The Open Source CFD Toolbox           |
|  \\    /   O peration     | Version:  4.1                                   |
|   \\  /    A nd           | Web:      www.OpenFOAM.org                      |
|    \\/     M anipulation  |                                                 |
\*---------------------------------------------------------------------------*/
FoamFile
{
    version     2.0;
    format      ascii;
    class       volScalarField;
    location    "30000";
    object      nut;
}
// * * * * * * * * * * * * * * * * * * * * * * * * * * * * * * * * * * * * * //

dimensions      [0 2 -1 0 0 0 0];

internalField   nonuniform List<scalar> 
21000
(
1.10729953262551e-09
1.24839065374102e-09
8.16817485284737e-10
3.32943951262101e-11
1.43019245683763e-10
2.33268194268742e-10
1.23467019295503e-10
6.42092783375991e-11
4.54072284031721e-11
3.64604614686041e-11
3.00597054863877e-11
2.4422302249865e-11
2.12898471725749e-11
2.01764836031218e-11
2.077113831847e-11
2.36976530316008e-11
2.98587474866104e-11
4.04062244069727e-11
5.64082430707327e-11
7.69965626810927e-11
1.01784768749408e-10
1.2890311662295e-10
1.54490074450866e-10
1.73886205889784e-10
1.83265042486768e-10
1.85659817566895e-10
1.82765288311557e-10
1.72817881605872e-10
1.61575719672595e-10
1.48865415982213e-10
1.54981648624061e-10
1.48953958199277e-10
2.89563132398984e-10
6.86616779436971e-10
1.16154945128747e-09
1.7833847745818e-09
2.4606272093547e-09
3.19434995623286e-09
3.9362687280047e-09
4.67907989133169e-09
5.40244388472897e-09
6.10166479502845e-09
6.76830781686822e-09
7.399130690373e-09
7.98951259192544e-09
8.53638647151932e-09
9.03616800496666e-09
9.48583750417586e-09
9.88237979893034e-09
1.02232582428165e-08
1.0506321880085e-08
1.07300249189971e-08
1.08934346693151e-08
1.09963203753324e-08
1.10390931296563e-08
1.1022821626008e-08
1.09496643126035e-08
1.08223200896044e-08
1.06441227719597e-08
1.04189544096415e-08
1.01511501158791e-08
9.84539599566537e-09
9.50662211821224e-09
9.13989678255237e-09
8.75032406217663e-09
8.34294877182874e-09
7.92267064357247e-09
7.49416961459139e-09
7.06184353875801e-09
6.62975842901025e-09
6.20161144997523e-09
5.78070605281468e-09
5.36993841534393e-09
4.97179411239905e-09
4.58835342112866e-09
4.22130454101352e-09
3.87196210875725e-09
3.54129172491837e-09
3.22993586489054e-09
2.93824546811804e-09
2.6663070498522e-09
2.41397981874258e-09
2.18091726359452e-09
1.96661171206381e-09
1.77040121553778e-09
1.59153022293747e-09
1.42912520911425e-09
1.28229355587076e-09
1.15003416616262e-09
1.03142265387301e-09
9.25386259715656e-10
8.31079159311907e-10
7.47372538322127e-10
6.73633969005272e-10
6.0862844743244e-10
5.52139229096766e-10
5.02652847995335e-10
4.60734390691048e-10
4.24177190946089e-10
3.95060346885048e-10
3.69546845873032e-10
3.52947581305989e-10
3.37613118561806e-10
3.35571927667831e-10
3.30047114793616e-10
3.48396865107876e-10
3.49197399909199e-10
3.9427279076544e-10
4.77569210658041e-10
5.11365669291946e-10
5.40235592457384e-10
5.07091578030593e-10
4.50044631118916e-10
3.64363741907021e-10
2.77731578469931e-10
1.97204014137265e-10
2.38433037354392e-10
3.69311152953961e-10
5.62022793997202e-10
8.22299216830566e-10
1.15170123084242e-09
1.52172107664472e-09
1.87091691994753e-09
2.18360651770021e-09
2.49374935388427e-09
2.79897220017967e-09
3.15770051901064e-09
3.58876415635335e-09
4.31250182238807e-09
5.58689756652764e-09
7.54149324044479e-09
1.05522357274124e-08
1.54629585377076e-08
2.34588046866669e-08
3.45497764222587e-08
3.86529585255172e-08
2.45430338403618e-08
1.04559485869278e-08
3.02518757335517e-09
1.15811758839946e-09
1.1022446483098e-08
1.10942378413867e-08
7.63485641719717e-09
3.11953351292009e-09
8.94815239911846e-10
2.96638752158469e-10
1.27921568700694e-10
7.59782985994079e-11
5.53339272477946e-11
4.35850644699648e-11
3.74726602761292e-11
3.34929066172127e-11
3.2773498264857e-11
3.52033648367651e-11
4.09734247866894e-11
5.16499348647695e-11
6.97507944269768e-11
9.861701285173e-11
1.42087268341042e-10
2.02818418897461e-10
2.84898708878403e-10
3.91331861730244e-10
5.21655865941966e-10
6.71821625639841e-10
8.35463429780957e-10
1.01051319118507e-09
1.18950835411765e-09
1.35406750203199e-09
1.49807618145668e-09
1.6241392264323e-09
1.78000546628491e-09
2.00690395324743e-09
2.64797070024698e-09
4.13438333082e-09
5.99398378379512e-09
8.16422971141661e-09
1.055671176784e-08
1.31294515790547e-08
1.58176809396206e-08
1.85965992702499e-08
2.14379120202723e-08
2.4330703919229e-08
2.72625635491453e-08
3.02263270795204e-08
3.32128855568455e-08
3.62136435178043e-08
3.92181310456442e-08
4.22151701936059e-08
4.5192372133927e-08
4.81369507409717e-08
5.10358879968894e-08
5.38763183749761e-08
5.66450806392673e-08
5.93273424934763e-08
6.19030799412892e-08
6.43533016360076e-08
6.66678757639903e-08
6.8835382563497e-08
7.08460053545563e-08
7.26915486935972e-08
7.43655194975407e-08
7.58631577998624e-08
7.71814242677453e-08
7.83189520946594e-08
7.9275965108725e-08
8.00541681840449e-08
8.06566162804967e-08
8.10875655594966e-08
8.13523149209299e-08
8.14570405177766e-08
8.14086290732395e-08
8.12145138735176e-08
8.08825171390127e-08
8.04207010164445e-08
7.98372290180596e-08
7.91402391258137e-08
7.83377301948501e-08
7.74374589742145e-08
7.64468551802048e-08
7.537293818832e-08
7.42222591873636e-08
7.30008253187334e-08
7.17140826349751e-08
7.03668107963795e-08
6.89631828575434e-08
6.75065619783677e-08
6.59997104493264e-08
6.44443713479466e-08
6.28417691900949e-08
6.11917752629361e-08
5.94939123906812e-08
5.77458513599059e-08
5.59452278711499e-08
5.40870735414248e-08
5.21670367228655e-08
5.01768555643321e-08
4.81105640021294e-08
4.59558436619395e-08
4.37069132558166e-08
4.13463536191129e-08
3.88742301527298e-08
3.62793327784871e-08
3.3580443495854e-08
3.07361183958603e-08
2.78064235374876e-08
2.47338692135957e-08
2.15457314932995e-08
1.82809077318819e-08
1.91482547555171e-08
2.15036029495258e-08
2.45904174357713e-08
2.74606216122788e-08
2.98050665678136e-08
3.14211381888388e-08
3.2367095944587e-08
3.30142395211141e-08
3.34851030429201e-08
3.36933900204538e-08
3.36583820521863e-08
3.34288280516898e-08
3.3044927128027e-08
3.22475340761922e-08
3.08497949259503e-08
2.9094937548705e-08
2.72859086312187e-08
2.55591068203164e-08
2.41053364590382e-08
2.30388399778296e-08
2.305544706076e-08
2.45299963540751e-08
2.76027734573758e-08
3.2884506789753e-08
4.17920646876359e-08
5.61426265683808e-08
7.44272895972126e-08
7.88447581190335e-08
5.71708480305615e-08
3.2648765026699e-08
1.69010721865817e-08
1.17947395125126e-08
2.23745006070101e-07
2.22596623213109e-07
1.5562916781132e-07
6.97077410390686e-08
1.78968110560151e-08
2.56755347020893e-09
6.06663921728076e-10
5.14587664695958e-10
4.08904375665407e-10
3.11295221109412e-10
2.89706382465047e-10
3.02646803760978e-10
3.43585828236226e-10
4.17624261366219e-10
5.34759404115017e-10
7.18511683835964e-10
1.00824735738349e-09
1.45713071147383e-09
2.13056239446603e-09
3.10288145494587e-09
4.47182132999605e-09
6.33774599986206e-09
8.76168189221215e-09
1.17406671585648e-08
1.52056258446868e-08
1.90564788672229e-08
2.31023865263069e-08
2.69605637393103e-08
3.03802124865658e-08
3.34061917472772e-08
3.67751454252656e-08
4.20029796267836e-08
5.40300232083642e-08
7.99985985709578e-08
1.12763814750811e-07
1.49711698390512e-07
1.90505265651743e-07
2.34184829618464e-07
2.80198767142183e-07
3.28135188014656e-07
3.77747113903168e-07
4.28883241134817e-07
4.814288259936e-07
5.35287708265467e-07
5.90346673804973e-07
6.46474398552598e-07
7.03508338757019e-07
7.612598954181e-07
8.19514349214387e-07
8.78039725996979e-07
9.36592403940439e-07
9.94921178082144e-07
1.05275461429147e-06
1.10977163209808e-06
1.16610044902676e-06
1.22085477410976e-06
1.27369798338248e-06
1.32432502348809e-06
1.37245305019771e-06
1.41782399842736e-06
1.46020831599401e-06
1.49940774457127e-06
1.53525724089481e-06
1.56762608697638e-06
1.59641818139017e-06
1.62157156112306e-06
1.64305725731155e-06
1.66087751734581e-06
1.6750635554437e-06
1.68567288306319e-06
1.69278634563238e-06
1.69650496458804e-06
1.69694668589376e-06
1.69424310835386e-06
1.68853626568727e-06
1.67997550647146e-06
1.66871456305083e-06
1.65490873431061e-06
1.6387124494072e-06
1.62027674959426e-06
1.59974744193971e-06
1.57726263433005e-06
1.55295193769732e-06
1.5269331756904e-06
1.49931364821912e-06
1.4701842853152e-06
1.43962495062411e-06
1.40769295019461e-06
1.37443626404856e-06
1.33987093685132e-06
1.30400837750112e-06
1.26681397704828e-06
1.22825823325473e-06
1.18824363594512e-06
1.14669866163507e-06
1.10344461602959e-06
1.05837983158095e-06
1.01122059535285e-06
9.61883734344957e-07
9.09943162258974e-07
8.55477681774163e-07
7.98368934499664e-07
7.39100963949305e-07
6.76490453646662e-07
6.11801934341908e-07
5.43734022776179e-07
4.73097126354719e-07
4.00492799385805e-07
4.17790727479268e-07
4.69679280831484e-07
5.3869925213902e-07
6.04279027144381e-07
6.58472648428732e-07
6.9679336881343e-07
7.20163959041159e-07
7.36596370740159e-07
7.46374363032979e-07
7.48333091333011e-07
7.435570196402e-07
7.33052369833088e-07
7.17577548023488e-07
6.9190406498772e-07
6.53559962248847e-07
6.08478589068964e-07
5.62544805482667e-07
5.18732117733543e-07
4.80238382951706e-07
4.49380193936932e-07
4.37517930459105e-07
4.47733069730595e-07
4.80961668065629e-07
5.44129845891484e-07
6.53154466080323e-07
8.24914298913127e-07
1.01970628901567e-06
1.03117052049421e-06
8.16683925557729e-07
5.35539500734693e-07
3.2254949474569e-07
2.40519254845566e-07
1.78870643874376e-06
1.78296581126349e-06
1.25082790516319e-06
5.69537018026544e-07
1.49926503553726e-07
2.14513882306255e-08
4.53445545367833e-09
3.8978095049832e-09
3.15153229330458e-09
2.390925555975e-09
2.23331535054199e-09
2.36328866505355e-09
2.70997400536796e-09
3.31469287696633e-09
4.25974134667574e-09
5.73039199132412e-09
8.04001740773999e-09
1.16139251060227e-08
1.69828851856751e-08
2.47655573327751e-08
3.57682181429278e-08
5.08389453742503e-08
7.05314448650026e-08
9.48825602203395e-08
1.23350094163834e-07
1.55047492059548e-07
1.88387807003043e-07
2.2025039764348e-07
2.48409471885959e-07
2.73153614246034e-07
3.00359541594678e-07
3.42485866024237e-07
4.38685609531556e-07
6.45409937899294e-07
9.06147600590754e-07
1.19908909591395e-06
1.52207684464728e-06
1.86738759311392e-06
2.23099761455233e-06
2.6097295273076e-06
3.00183556124805e-06
3.40623762517481e-06
3.82218346998335e-06
4.24904088787714e-06
4.68605303982475e-06
5.1323084061233e-06
5.58664555220516e-06
6.0476838485065e-06
6.51382193042038e-06
6.98330132952385e-06
7.45424667019364e-06
7.92469418828459e-06
8.39263745727245e-06
8.85695036621116e-06
9.31666696236777e-06
9.7648971614113e-06
1.01990904013986e-05
1.06166906416239e-05
1.10152975478804e-05
1.13926894010083e-05
1.17468572919061e-05
1.20760320087767e-05
1.2378704152487e-05
1.26536376791606e-05
1.2899876648609e-05
1.31167454214298e-05
1.33038430395639e-05
1.34610319511709e-05
1.35884223552755e-05
1.36863525497667e-05
1.37553663059945e-05
1.3796188100392e-05
1.3809697067731e-05
1.37969003259003e-05
1.3758906334959e-05
1.36968987159254e-05
1.36121113455465e-05
1.35058041604168e-05
1.33792419616193e-05
1.32336724368201e-05
1.3070309669906e-05
1.28903125427441e-05
1.26947769086753e-05
1.24847073390371e-05
1.22610262534294e-05
1.20245252218951e-05
1.17759067275149e-05
1.15156907966967e-05
1.12443194850645e-05
1.09619769539135e-05
1.06688023049998e-05
1.03645673760507e-05
1.0049067553782e-05
9.72156566426811e-06
9.38149646625899e-06
9.02747218881888e-06
8.65864976451023e-06
8.2728137321044e-06
7.86921079512303e-06
7.44453114346918e-06
6.99919831228582e-06
6.53301560941927e-06
6.04946369034403e-06
5.53899452151823e-06
5.01114127920119e-06
4.45627272768039e-06
3.88148932102839e-06
3.28767017651268e-06
3.43015990320848e-06
3.8592405582792e-06
4.43357728175591e-06
4.9806240073388e-06
5.43358065230883e-06
5.75566548439661e-06
5.95497428188757e-06
6.09555065155518e-06
6.17626586172379e-06
6.18889428220588e-06
6.14364108620016e-06
6.04898523943205e-06
5.91008010042012e-06
5.68505844287099e-06
5.35930106232991e-06
4.98352118410677e-06
4.60353421660879e-06
4.24309340429915e-06
3.92783190985333e-06
3.67815855578582e-06
3.58356961474715e-06
3.66154526679685e-06
3.91914646325748e-06
4.41008384762015e-06
5.25038100368789e-06
6.54102480422422e-06
7.91106769246576e-06
7.78376898548851e-06
6.10396059063517e-06
4.05191422957876e-06
2.50518782414086e-06
1.90598100421081e-06
8.14146015669048e-06
8.18882925324684e-06
5.797218960766e-06
2.6984940648404e-06
7.42172570520824e-07
1.1244565328615e-07
2.30844881007202e-08
1.89401766156706e-08
1.54228216068278e-08
1.17017990670642e-08
1.08722675591286e-08
1.14800774229981e-08
1.31350330971813e-08
1.60242828049683e-08
2.05383690362718e-08
2.75500123806094e-08
3.85492700094424e-08
5.55656198900784e-08
8.11646032650628e-08
1.18363054817195e-07
1.71071364491889e-07
2.43474486621184e-07
3.38431350763733e-07
4.56314811643886e-07
5.94484532643172e-07
7.48295709164104e-07
9.09881927465679e-07
1.06408037103606e-06
1.19934680749881e-06
1.31662467761708e-06
1.44237880260827e-06
1.63572345606352e-06
2.0808143833213e-06
3.03963911769605e-06
4.24792992502505e-06
5.60178428955725e-06
7.09238145954906e-06
8.68435893232446e-06
1.03601776391061e-05
1.21058694668917e-05
1.3914171313837e-05
1.57808355967194e-05
1.7703122429028e-05
1.96788125337898e-05
2.1705071348374e-05
2.37782917586578e-05
2.58936314439081e-05
2.80451351829441e-05
3.02257007931419e-05
3.2427351066556e-05
3.46414320719292e-05
3.68590017008148e-05
3.90720715889158e-05
4.12786155678399e-05
4.34592389989349e-05
4.55906428835287e-05
4.76608247166887e-05
4.96574028696741e-05
5.15686858357028e-05
5.33837791231397e-05
5.5092757022642e-05
5.66867988141091e-05
5.81582924545322e-05
5.95009065051833e-05
6.07096293444336e-05
6.17807768625977e-05
6.27119721346944e-05
6.3502097921766e-05
6.41512280217064e-05
6.46605393092398e-05
6.50322092234874e-05
6.52693026106337e-05
6.53756519476462e-05
6.535573397377e-05
6.52145457819281e-05
6.49574824078353e-05
6.45902196207242e-05
6.41185994691691e-05
6.35485290559287e-05
6.28858755452011e-05
6.21363854911198e-05
6.1305581289621e-05
6.03987192432675e-05
5.94206562973018e-05
5.83758831948212e-05
5.72683021251125e-05
5.61014006422842e-05
5.48778393317806e-05
5.35998883161823e-05
5.22686573816823e-05
5.08849674901634e-05
4.94480199650419e-05
4.79569475141028e-05
4.64086029901447e-05
4.48002767284883e-05
4.31258440457517e-05
4.13810015541987e-05
3.95559220640862e-05
3.76461501511445e-05
3.56371555181048e-05
3.35288008407649e-05
3.13218049370073e-05
2.90291133072861e-05
2.66094929718917e-05
2.4102765413058e-05
2.14690922514576e-05
1.87423717595885e-05
1.59038261656393e-05
1.65829040497903e-05
1.86577469464464e-05
2.14378780283301e-05
2.408691727165e-05
2.62805901059952e-05
2.78473682396976e-05
2.88291802847276e-05
2.95206352875602e-05
2.99056600703453e-05
2.99498461674668e-05
2.97057256299528e-05
2.92143303702662e-05
2.84949685971875e-05
2.7354410964782e-05
2.57471223564413e-05
2.39231938487652e-05
2.20916487756235e-05
2.03635795993454e-05
1.88598980375435e-05
1.76854228810457e-05
1.72529960072437e-05
1.76137379541792e-05
1.87948798432965e-05
2.10390940134925e-05
2.48404948652655e-05
3.05351279672344e-05
3.62583203835229e-05
3.48035220859686e-05
2.64663287949795e-05
1.73744586029618e-05
1.09237986139687e-05
8.52179059954075e-06
2.53652856355179e-05
2.59046120040944e-05
1.87756269788051e-05
9.04658929020459e-06
2.64917608985687e-06
4.3264831801889e-07
8.75337683892469e-08
6.77368184499517e-08
5.54720213933745e-08
4.21062808116954e-08
3.88630524143954e-08
4.0870425091573e-08
4.65892359476567e-08
5.6624359400412e-08
7.2315101417994e-08
9.66481090024088e-08
1.34770177469279e-07
1.93710222502701e-07
2.82468802675698e-07
4.11701313409523e-07
5.95133142367246e-07
8.47684730140586e-07
1.17991412453987e-06
1.59358698926617e-06
2.07894897864232e-06
2.61795445498555e-06
3.18193757601963e-06
3.71624099586098e-06
4.17789193649347e-06
4.56649811756945e-06
4.967216271896e-06
5.58818744904292e-06
7.05780794538018e-06
1.02232924039594e-05
1.42053711020654e-05
1.86585256814554e-05
2.35564873365243e-05
2.878488479956e-05
3.42880459991102e-05
4.00213100842716e-05
4.59614864035487e-05
5.20949459159259e-05
5.84125958398515e-05
6.49067473624744e-05
7.1567344678743e-05
7.83815095609781e-05
8.53320422417631e-05
9.23978754975723e-05
9.9553991933432e-05
0.000106772367108539
0.000114022965955933
0.00012127684038656
0.000128516206188087
0.000135703882798742
0.000142777759313258
0.000149678917198658
0.000156369360297118
0.000162810469732086
0.000168966312422437
0.000174803879532447
0.000180293543433329
0.000185409389041451
0.000190129440071619
0.000194435787618709
0.000198314623412829
0.00020175618548484
0.000204754629747344
0.000207307832058443
0.000209417139830179
0.000211087078715713
0.000212325027812268
0.000213140873941284
0.000213546655413012
0.000213556202500066
0.000213184781688373
0.000212448748178322
0.00021136521542149
0.000209951733680612
0.000208226006216986
0.000206205594221753
0.000203907687617851
0.000201348810361717
0.000198544694852586
0.000195509898607547
0.00019225787804345
0.000188800357545709
0.000185147767400496
0.000181308107599644
0.000177288046810533
0.000173090870110887
0.000168718627724572
0.000164168720068689
0.00015943759853918
0.000154515319575531
0.000149391877528234
0.000144047918798192
0.000138467136499949
0.000132618385343741
0.000126482443157629
0.000120013523480161
0.000113201238616406
0.000106043179509009
9.85676408951682e-05
9.06546331165885e-05
8.24106902107782e-05
7.37210719934191e-05
6.46721361822272e-05
5.52058876993028e-05
5.73771042779474e-05
6.43949523659305e-05
7.37290537373084e-05
8.26065136987763e-05
8.99376150782159e-05
9.52000835957583e-05
9.85483103080502e-05
0.000100911108926066
0.000102215313469945
0.000102355558958861
0.000101505879454842
9.97976619570247e-05
9.72747171711766e-05
9.33188229891086e-05
8.78334705371195e-05
8.16618488406768e-05
7.54793458725743e-05
6.96567025987323e-05
6.46014435395999e-05
6.06959834983069e-05
5.92938263689004e-05
6.04862279999377e-05
6.43303972860534e-05
7.15911208767075e-05
8.37572399274353e-05
0.00010158800389851
0.000118888975125333
0.000112566569004035
8.30196702960256e-05
5.29359156047595e-05
3.3130576402332e-05
2.61330117977377e-05
6.01462247287985e-05
6.21945567560056e-05
4.68026014381243e-05
2.36476565759719e-05
7.51224199361197e-06
1.34930363042609e-06
2.7261572086957e-07
1.97276840307816e-07
1.62363832316747e-07
1.23302087129135e-07
1.12970948821785e-07
1.18233712016979e-07
1.34195429417601e-07
1.62399688611824e-07
2.06536310001524e-07
2.74850014791208e-07
3.81679018575064e-07
5.46643511126808e-07
7.95183379575118e-07
1.15756071262411e-06
1.67243668469251e-06
2.3823188826621e-06
3.31778965603332e-06
4.48363261167583e-06
5.84863437342909e-06
7.35456402026799e-06
8.91494199436755e-06
1.03696366570989e-05
1.1590078973047e-05
1.25681397596068e-05
1.35351543746969e-05
1.51132066373782e-05
1.900609703373e-05
2.73070901923761e-05
3.77201563642832e-05
4.93498986027179e-05
6.2118130749249e-05
7.57191833111007e-05
8.99964698056142e-05
0.000104822202142009
0.000120122963200645
0.000135850343108586
0.000151967537634879
0.000168441758875545
0.000185234850161932
0.000202302571031098
0.000219591328682969
0.000237039759234816
0.000254578963094393
0.000272135319139648
0.000289634671109537
0.000307018727658133
0.000324223474458862
0.000341141249636958
0.000357648047471887
0.000373636290772406
0.000389029133815225
0.000403751095737522
0.000417734162945139
0.000430917840526187
0.000443249706237529
0.000454685705788727
0.000465190259425164
0.0004747362047105
0.000483304588167117
0.000490884325635992
0.000497471760206055
0.000503070125593717
0.00050768895109935
0.000511343414786327
0.000514053666648061
0.000515844137830556
0.000516742851253963
0.000516780742722752
0.000515991001211927
0.000514408433294337
0.000512068863969048
0.000509008556010097
0.000505263699421231
0.000500869876691493
0.000495861643298219
0.00049027198066408
0.00048413205339354
0.000477470478147821
0.000470313417962393
0.000462683385252367
0.000454599932719683
0.000446077553636429
0.000437127436487693
0.000427753777972662
0.000417957165561904
0.000407728626075142
0.000397055383843353
0.000385911528150128
0.000374267935001218
0.000362076219878134
0.0003492893911269
0.000335829973655908
0.000321637324438897
0.000306597107123417
0.000290655369297374
0.000273772502772012
0.000255973645582145
0.000236986123665029
0.000216994803405514
0.0001957249123456
0.000173285972005195
0.000149666030201389
0.000154484842684509
0.000172127051169184
0.000195298137276541
0.000217270897196884
0.000235353777673922
0.000248455362496946
0.00025700186605044
0.000263128359246972
0.000266641284480257
0.000267274667481463
0.000265414972130305
0.000261351554375143
0.000255132081847151
0.00024527816033098
0.000231593677612101
0.000216134261330496
0.000200554150871642
0.000185808610696631
0.000172964874734733
0.000163108321171822
0.00015969166558008
0.000162877500548943
0.000172721082453159
0.000191035184008534
0.000221225410507041
0.000264414400534995
0.000305358923274188
0.00028910393687597
0.000211150369714675
0.000130873806177797
7.98522090745354e-05
6.20534287720486e-05
0.000118202665745601
0.000122072479756563
9.56806286354636e-05
5.10612077091558e-05
1.78060171649617e-05
3.59637414624131e-06
7.40787658050846e-07
4.97352825090153e-07
4.1095611010602e-07
3.1225535699997e-07
2.83768809793551e-07
2.95314564541208e-07
3.33523472197612e-07
4.01647519721667e-07
5.08342004693128e-07
6.73083343089438e-07
9.3006646441116e-07
1.32614765731764e-06
1.92278184989433e-06
2.79318257259056e-06
4.029778936652e-06
5.73445807425703e-06
7.9793143278796e-06
1.076894958478e-05
1.40110607282024e-05
1.75410104811997e-05
2.11311302188163e-05
2.43848583633318e-05
2.69926757946372e-05
2.89558896478705e-05
3.08788626272923e-05
3.43836299509911e-05
4.32735570216332e-05
6.17612229715988e-05
8.4820490896901e-05
0.000110467530551839
0.000138426990551739
0.000167950904848949
0.000198625505576644
0.000230120072369693
0.000262233616962324
0.000294830628966978
0.000327809483514914
0.00036108497090229
0.000394568730652921
0.000428167416525723
0.0004617765651955
0.00049528360170741
0.000528568624399819
0.000561511133246203
0.000594002274189581
0.000625961215827388
0.000657245360840817
0.000687687406149496
0.000717116093249847
0.00074539118013996
0.000772408561959216
0.000798068828985292
0.000822285207194592
0.000844983111868996
0.00086610055030328
0.000885588178126559
0.000903409133397458
0.000919538683996852
0.000933963705330582
0.000946682013633615
0.000957701593637881
0.000967039725331862
0.000974722059247449
0.000980781643253409
0.000985257927091551
0.000988195763773057
0.000989644425878292
0.000989656645883291
0.000988287688742225
0.000985594461853194
0.000981634675693235
0.000976466028372081
0.000970145485077543
0.000962728518742593
0.000954268497987082
0.000944815891571997
0.000934417877704334
0.000923117267048895
0.000910952521350605
0.000897956028693234
0.000884154810728022
0.000869567593936081
0.000854206730727041
0.00083807316691049
0.000821160242842056
0.000803445710249077
0.000784898165096994
0.000765464519437057
0.000745081689380921
0.000723654376179186
0.000701081651114051
0.000677211526088841
0.000651905990303079
0.000624938370935479
0.000596157011031758
0.000565420080277889
0.000532688829947854
0.000497442667140503
0.000459874355870173
0.000419408774809035
0.000376015646349861
0.000329944152439268
0.000337325741451651
0.000371350291499165
0.000415826406889229
0.000458053069558922
0.000492869984949667
0.000518531276273188
0.000535896072140879
0.000548722752406954
0.000556651249955514
0.000559115248240546
0.000556719722758871
0.000549929213751836
0.000538714928098579
0.000520312046691763
0.000494301192515975
0.000464491335662964
0.000434063551563535
0.000404973915609302
0.000379451401500423
0.000359956077630034
0.000353597338858363
0.000360823599092982
0.000381580506129658
0.000419162845758729
0.00047953993391305
0.000563248445112187
0.000640658305977594
0.000611161330591244
0.000454796681388003
0.00028100711955933
0.000166696752999548
0.000124994257667118
0.00020644184381515
0.000209236449785414
0.000169189416425232
9.51251464729332e-05
3.63738581843707e-05
8.46454596037389e-06
1.82173844391919e-06
1.12843100969991e-06
9.34437675734452e-07
7.10456053193228e-07
6.3977210648442e-07
6.61354329641494e-07
7.42628293346188e-07
8.89277352673562e-07
1.11917215767553e-06
1.47312564457307e-06
2.0235565864682e-06
2.86979107357367e-06
4.14332372980453e-06
6.00022640706421e-06
8.63400336854131e-06
1.22553071944755e-05
1.70026452796497e-05
2.285196337975e-05
2.95508492513939e-05
3.66879864919857e-05
4.3739921068795e-05
4.98795750630724e-05
5.45340630560944e-05
5.78722560952878e-05
6.1393632658061e-05
6.86873680282531e-05
8.6928447303471e-05
0.000123361208470662
0.000168197003040251
0.0002174096013164
0.000270127249821313
0.000324743628905894
0.000380389013485788
0.000436435710079183
0.000492540389821683
0.000548503415042512
0.000604199503445742
0.000659538548076831
0.000714430599619429
0.000768780517036217
0.00082247829126384
0.000875403293132454
0.000927426111240667
0.000978421123541125
0.00102831553596252
0.0010769583300147
0.00112417347029989
0.00116976655559894
0.00121355106397634
0.00125537923977093
0.00129513836462655
0.00133272262350356
0.00136804178553292
0.00140102056835644
0.00143159904430253
0.00145973262413715
0.00148539178179695
0.00150856156176761
0.00152924088923546
0.00154744171176556
0.00156318802021177
0.00157651475054261
0.00158746662877016
0.00159609695966237
0.00160246638954358
0.00160664166643935
0.00160869441900991
0.00160869996453507
0.00160673615385402
0.00160288226034473
0.0015972179256808
0.00158982213110438
0.00158077227679641
0.00157014321344046
0.00155800642951393
0.00154442902255048
0.00152947311835944
0.0015131944922386
0.0014956423844368
0.00147685738257996
0.00145687184713536
0.00143570645033608
0.00141337166154467
0.00138986202590064
0.00136515929655895
0.00133922336275596
0.0013119977593626
0.0012833953386402
0.00125330911264771
0.00122158630778646
0.00118805585410541
0.00115247460049088
0.00111459958858182
0.00107406508307573
0.00103057358767239
0.000983820901693847
0.000933643312342364
0.000879200424429636
0.000820560756498914
0.000756718785202243
0.000687225959897942
0.000612883095728581
0.000620310581694753
0.000673372235697355
0.000743688425623845
0.000811117643536794
0.00086729189663262
0.000909697343740201
0.000939640554026356
0.000962550509222641
0.000977892453951891
0.00098464608644969
0.000983527149282365
0.00097512815786441
0.000959234326298344
0.000931569643870616
0.000891348272637654
0.000844360878688041
0.00079568779672424
0.000748653660190419
0.000707094614266228
0.000675567184227821
0.000666227529606138
0.000680256455920552
0.000717307262351072
0.000782125054400096
0.000883009267357148
0.00101809730164557
0.00113953910895031
0.00109599976575948
0.000843962552227389
0.000536785306290109
0.000315676394570178
0.00022751721145443
0.000335878058922289
0.00032979038076809
0.0002708251896201
0.000158727200611351
6.57145984577955e-05
1.78016003169219e-05
4.13619268124063e-06
2.36566278992895e-06
1.95775683774429e-06
1.48957835300918e-06
1.32760591945762e-06
1.36134773453635e-06
1.51826429300053e-06
1.80615083912881e-06
2.25809623858598e-06
2.95175416527909e-06
4.02665415742436e-06
5.67425976118346e-06
8.14948676241442e-06
1.17514863299389e-05
1.68409263053124e-05
2.37965345999244e-05
3.28267483371185e-05
4.37807368247212e-05
5.60413940174584e-05
6.87170343655802e-05
8.07848910697271e-05
9.08256984013823e-05
9.8092182420148e-05
0.000103378727375731
0.000109927901683498
0.000124434914483319
0.000158692478501244
0.000223543445647304
0.000301262282206821
0.000384398559859806
0.000471025625951044
0.00055846228946224
0.000645471742046384
0.000731305079780457
0.000815675008493935
0.000898494594111154
0.000979764070692129
0.00105950863025821
0.00113773402176792
0.00121442144910872
0.00128951923367052
0.00136295141472627
0.0014346258516723
0.00150447325128965
0.00157241141058634
0.00163826108419566
0.00170183814147896
0.00176294453873646
0.00182139738955769
0.00187705329867787
0.00192979933517228
0.00197953075168549
0.00202615967470332
0.00206961469254487
0.00210984145014786
0.00214680273526887
0.00218047824300792
0.00221086406993208
0.0022379719652629
0.00226182837353515
0.00228247332721865
0.00229995919062193
0.00231434933031413
0.0023257167133407
0.00233414246764671
0.00233971443332849
0.00234252573033812
0.00234267335520923
0.00234025681454929
0.00233537680582344
0.00232813395632251
0.00231862758843444
0.00230695459757319
0.00229320828162025
0.00227747731658434
0.00225984450668911
0.00224038597835164
0.00221916954587028
0.00219625422219561
0.0021716878400475
0.00214550696659478
0.00211773315873086
0.00208837366463979
0.00205741545906529
0.00202482696371937
0.0019905487654031
0.00195449688475509
0.00191654822879941
0.00187654801207828
0.00183428345553501
0.00178950634639231
0.00174187871914059
0.00169103876404237
0.00163647610636832
0.00157771865869803
0.00151426050756472
0.00144577766611092
0.00137109317659047
0.00129002332918155
0.00120108093638397
0.00110311006271243
0.000997775543004229
0.00100095017439956
0.00107206667605352
0.00116950673991572
0.00126471927925506
0.00134542752607532
0.00140803627455096
0.00145413486614661
0.00149058778784221
0.00151669771700084
0.00153086112278709
0.001533735177119
0.00152595496053289
0.00150702031352577
0.00147113040187812
0.00141704910255905
0.00135253257327504
0.00128474410356879
0.00121864883961413
0.0011599849644296
0.00111597480442895
0.00110460343269373
0.00112828698687481
0.00118618613565665
0.00128403376567903
0.00143155246215927
0.00162264301248713
0.00178955784370418
0.00173186374159421
0.00138035040660112
0.00091988352708127
0.000551473302559243
0.000387162974046841
0.000521325860333342
0.000493861746513734
0.000406281129349474