/*--------------------------------*- C++ -*----------------------------------*\
| =========                 |                                                 |
| \\      /  F ield         | OpenFOAM: The Open Source CFD Toolbox           |
|  \\    /   O peration     | Version:  4.1                                   |
|   \\  /    A nd           | Web:      www.OpenFOAM.org                      |
|    \\/     M anipulation  |                                                 |
\*---------------------------------------------------------------------------*/
FoamFile
{
    version     2.0;
    format      ascii;
    class       volScalarField;
    location    "30000";
    object      omega;
}
// * * * * * * * * * * * * * * * * * * * * * * * * * * * * * * * * * * * * * //

dimensions      [0 0 -1 0 0 0 0];

internalField   nonuniform List<scalar> 
21000
(
9930.48698389122
9925.72086254229
9946.33591284169
10107.2568438054
10607.3647255237
11382.1101408806
11894.3643221514
11983.9743037505
11693.7943804683
11131.5924812274
10384.952073723
9526.46403851704
8657.34028864045
7906.66753966316
7269.11828572343
6723.58550409519
6253.57971188864
5846.0773569989
5489.7394458316
5154.26541980822
4817.40041125045
4483.39510258131
4156.81470638338
3841.73790736679
3542.33998637807
3268.67512334814
3036.27099683598
2845.05370372216
2693.38467049602
2580.68043847819
2507.25782661982
2474.19548856017
2479.29252634513
2482.62138355653
2482.62179271487
2482.62232843165
2482.62291188202
2482.6235439907
2482.62418316063
2482.62482309953
2482.62544628466
2482.62604867068
2482.62662299006
2482.62716645074
2482.62767507094
2482.62814620884
2482.62857677578
2482.62896417117
2482.6293057966
2482.62959946734
2482.62984332976
2482.63003605247
2482.63017683193
2482.63026546914
2482.63030231821
2482.63028830045
2482.63022527441
2482.63011556587
2482.62996204679
2482.62976806172
2482.62953734534
2482.62927393465
2482.62898207718
2482.62866613926
2482.62833051811
2482.62797955998
2482.6276174858
2482.62724832779
2482.6268758742
2482.62650362874
2482.62613477577
2482.62577216124
2482.625418281
2482.62507527565
2482.62474493793
2482.62442872156
2482.62412775999
2482.62384288437
2482.6235746483
2482.62332335433
2482.62308907693
2482.62287169476
2482.62267090951
2482.62248628303
2482.6223172462
2482.62216314711
2482.62202323385
2482.62189673692
2482.6217827946
2482.62168060964
2482.62158925851
2482.62150801202
2482.62143589805
2482.62137237177
2482.62131636886
2482.6212677029
2482.62122507011
2482.62118895688
2482.62115746254
2482.62113237814
2482.62111039816
2482.62109609763
2482.62108288699
2482.62108112826
2482.62107636881
2482.62109217728
2482.62109286683
2479.29261643244
2474.19577070383
2507.25813669411
2580.68078896393
2693.3849934304
2845.05397741967
3036.27118817542
3268.67522778775
3542.34000351518
3841.73799341827
4156.81501626101
4483.39577643395
4817.40161573715
5154.26734202967
5489.74223730167
5846.08107043969
6253.58438603067
6723.59126668573
7269.12529410642
7906.67614756377
8657.35100664057
9526.4782148805
10384.9720981641
11131.6214726813
11693.8370154725
11984.0383423345
11894.4606403041
11382.2456834242
10607.50647864
10107.342809072
9946.36918266159
9925.72698248182
9930.48715900938
1711.89541177686
1709.68503125443
1718.57985257053
1745.68315554709
1826.14727945819
1954.54855302779
2042.81242388908
2060.06943909073
2011.98576664975
1916.7336285985
1789.45366593033
1642.55648296991
1493.14378827646
1363.60578623644
1253.56955635211
1159.44886463873
1078.3689205991
1008.0820626001
946.681683665492
889.028156888825
831.19292682948
773.786560140853
717.592534946005
663.324843569292
611.711797067613
564.466428447849
524.277264213688
491.202631571725
464.978798910904
445.523746312827
432.938594544994
427.589095524495
429.231183275907
429.554632108966
429.455672396826
429.385696910512
429.29517450615
429.189946503504
429.089833172336
428.995308206613
428.91103453484
428.83448434576
428.765115802369
428.700413706918
428.638991276449
428.579155845259
428.519879036102
428.46025002476
428.399755640504
428.338057467143
428.275050636003
428.210763920022
428.145339905624
428.079554566305
428.033773570935
428.000784161904
427.966777611872
427.93207460215
427.896962927615
427.861729753171
427.826656610122
427.792013873333
427.758056507528
427.725020457741
427.693119848302
427.66254508918
427.633461515412
427.606008916554
427.580301522153
427.55642857822
427.534455354204
427.514424544677
427.496357930836
427.480258272084
427.466111281421
427.453887855092
427.44354596407
427.435033284013
427.428288445738
427.423244464867
427.41982827459
427.417966869288
427.417581818345
427.418603153181
427.420951359036
427.424570420338
427.429380590532
427.435355881138
427.442410355653
427.450574792573
427.459737855514
427.470038071068
427.48128808094
427.493835519101
427.507296994508
427.522438347251
427.538391375208
427.556806281435
427.575605624175
427.598395259181
427.620194873445
427.66723067185
427.72189672549
427.810362473673
427.855994729545
427.96749151496
428.030670991585
428.130074066658
427.332027923518
432.9432098183
445.504431161325
464.916960578849
491.059092151703
524.036989430362
564.108314952349
611.171695787811
662.560601049946
716.615452434934
772.640243752914
829.943169533239
887.750062210143
945.486065792544
1007.029977533
1077.44342604026
1158.61675906367
1252.79886897643
1362.79010939911
1492.13689458137
1641.09714396248
1787.6865031795
1914.76823444563
2009.92989116428
2058.24574827599
2042.17592831789
1956.96281547233
1835.39325295492
1762.27563591608
1734.16683975689
1725.61956824632
1715.47013183808
573.254984280875
572.000909282201
572.013506939796
579.944743230599
607.364486276051
651.177247956077
679.848125624561
686.21306876186
670.897449310041
639.599756561291
597.460771910104
548.682556669455
498.913943648271
455.640399610343
418.814086980919
387.29907350402
360.148622823905
336.611740284934
316.076654697877
296.843901209095
277.57666146562
258.454032413014
239.73766263204
221.664534081834
204.465905026606
188.695639004296
175.227784042238
164.149958803563
155.391119312441
148.948334877894
144.769001579045
142.94445133309
143.062732883406
143.067084241398
143.077991199159
143.133834258381
143.185602613071
143.235589529054
143.280932169535
143.321855459547
143.357444465768
143.387748965375
143.412530037576
143.431852468193
143.44570769857
143.454195158733
143.457410476948
143.455505467792
143.448655153721
143.437078355696
143.421029848988
143.400848374252
143.377366942472
143.351848535043
143.286045229471
143.216111092051
143.145207588678
143.07388206741
143.002692544948
142.932177240373
142.862847279326
142.795179130639
142.729609153381
142.666529445119
142.606285093114
142.549172840837
142.495440664648
142.445288597868
142.398870212903
142.35629487287
142.317630521157
142.2829069152
142.25211912016
142.225231197435
142.202179931511
142.182878727884
142.167221091114
142.155084766461
142.146334343149
142.140826030233
142.138408349075
142.138929577116
142.142233022977
142.148172585183
142.156594704531
142.167374131883
142.180365348355
142.195484537084
142.212592839603
142.23167921382
142.252599129976
142.275469722557
142.300101033241
142.326841834924
142.355355366718
142.386426765528
142.419312585217
142.455679138481
142.493685525402
142.536902846434
142.580611200129
142.61331110197
142.626464211591
142.637216361987
142.652814181182
142.663353836532
142.726866075728
142.783782779741
142.722229326704
144.645984801229
148.763241483959
155.1374738034
163.762448964597
174.677239623836
187.953805835437
203.516884927176
220.512796047213
238.419904216528
257.009070075588
276.059391675064
295.327004971374
314.69711718166
335.419481029648
359.072708986725
386.284928777277
417.80582093213
454.525487209829
497.559624537213
546.716224811969
595.065863984114
636.960160394073
668.195085603763
683.903889210266
679.051453940517
654.395153017981
618.584987809134
590.247266810289
579.328891243463
575.912984295358
574.613220009892
271.116892949307
269.148681746378
270.184045978507
273.54206003301
283.963625851071
301.885302587435
313.699453845504
316.792190323454
310.124531760832
295.886562834951
276.530533512115
254.084270340228
231.146242125242
211.14959575863
194.116376016841
179.547660512455
167.000523966889
156.124466481051
146.627895593623
137.730953793198
128.814781753012
119.948289426945
111.254247805814
102.850055839511
94.8582416426802
87.5441469887441
81.2970027183884
76.1691504009631
72.1503881062251
69.2542550631343
67.4629706197392
66.9148639713037
67.3289149594069
67.4015851725203
67.4169459310831
67.4426275032567
67.4490448802069
67.4459508046076
67.4355815517293
67.4199867988456
67.3995213140254
67.3741245833764
67.3435277015852
67.3074409055222
67.2657033924615
67.2182710163508
67.1652605754162
67.1069135957681
67.0435973399452
66.9757782964772
66.9040335847371
66.8290920829037
66.7512655722089
66.6637030212857
66.5557543720098
66.4478730448988
66.340996648943
66.2358367964639
66.1330701542921
66.033319867695
65.9371502007359
65.8450617620571
65.7574891853016
65.6748003234552
65.5972969181529
65.5252165883533
65.4587355916065
65.3979725776115
65.3429927134278
65.2938122697561
65.25040342794
65.212699208437
65.1805983579263
65.1539701510799
65.132659003824
65.1164890084153
65.1052679466076
65.0987916939606
65.0968471703488
65.0992170553778
65.1056809705637
65.1160223663893
65.1300249176459
65.1474865737839
65.1682042526987
65.1920058399102
65.2187083699572
65.2481903980225
65.2802918482228
65.3149727453037
65.3520922969108
65.3917442520362
65.4337842518856
65.4785331148213
65.5257728169925
65.5762318468156
65.6294145042052
65.6868359425715
65.7471436698901
65.8134831819436
65.882128919904
65.9455052632723
65.995554193118
66.0494086959838
66.1025854860951
66.1606756218814
66.2391832870741
66.3742871268342
66.2496898412423
67.0380258623598
68.7883425527529
71.5932919802972
75.4450300545978
80.3595460782361
86.361463057952
93.3863018773241
101.082502408339
109.232534811841
117.730948797611
126.485309775969
135.399253225183
144.478336594868
154.249874865031
165.346034732907
178.053330205
192.712373831022
209.690770219361
229.434465970703
251.653695646552
273.507809195672
292.452432152362
306.449298033214
313.264996584714
311.109781098274
302.133007289343
292.727230083677
286.0654508394
283.550102868906
280.45130555827
275.210273277208
159.46339795997
156.237346862125
157.678581647138
159.523141257042
162.392730513473
169.01435051525
173.745008815286
175.404695670735
172.022308428069
164.289007196794
153.618161381027
141.227646081074
128.566035933893
117.503643764171
108.078278191284
100.029401166773
93.1036756540478
87.1013488581581
81.8450193359258
76.9034279560381
71.9385928382089
66.9811384638531
62.102813496963
57.3800187447257
52.9015774011882
48.8274105283334
45.3606508882533
42.5377617708398
40.3715867720268
38.8842030038876
38.1047324212907
38.1857095149232
38.8244900860843
38.9246293989162
38.8936320928765
38.8448501024148
38.7656356093548
38.6735465387071
38.5754450101468
38.4750120839233
38.3734300573045
38.2705316275622
38.1659430203784
38.0591321273407
37.9498371594188
37.8379541736258
37.723640306012
37.6072164402112
37.4891713959554
37.370107460337
37.2507236799369
37.1316042750799
37.011945257681
36.8842202469769
36.7531281321792
36.6259566690803
36.5030937187497
36.3850970414865
36.272445673222
36.1655472381425
36.0647382079564
35.9702854330383
35.88238936573
35.8011880917434
35.7267620597289
35.6591393007845
35.5983006968398
35.5441854776048
35.4966964595753
35.4557051690779
35.4210567008239
35.3925742869439
35.3700635065206
35.3533161642274
35.3421138221492
35.3362311058565
35.3354385162081
35.3395054629328
35.3482021419552
35.361302800864
35.378586329638
35.3998413337899
35.4248631046751
35.4534646942434
35.4854647488389
35.5207134458112
35.559059438722
35.6004087127239
35.6446453641735
35.6917604491621
35.7416768430371
35.7945209752681
35.8502453738541
35.9092012115593
35.9713244870935
36.0373621160739
36.1070751038899
36.181941857229
36.2610684292806
36.3473824486977
36.4380367153949
36.5295880114905
36.6148439289122
36.7090140355819
36.8009557181926
36.9048164782173
37.0115537920275
37.1869124435228
36.9653372993778
37.2535277115041
38.0578632013937
39.4596613909948
41.4493001719223
44.0300027977916
47.2077071910128
50.923957513167
55.0225379864355
59.4015981125339
64.0031750269967
68.7843104593909
73.7068359275157
78.821392565258
84.3854461282699
90.6700305764637
97.8202434516426
106.014635988433
115.414716048753
126.198396310677
138.025678699312
149.568902719515
159.487972303241
166.562714935737
169.510317988922
167.666351356782
163.433577946973
163.078462915515
167.069800487806
171.793747458317
171.93438134638
165.668206207345
109.653692541285
105.342564983698
106.45633581972
107.895727014057
106.822983100484
107.024181719259
107.800797408513
108.603903595048
106.759735377571
102.096491307359
95.5163492682994
87.8683439949688
80.0680800315915
73.2423888843037
67.4299875102975
62.4803235354988
58.2282458854573
54.5428231825669
51.2969843029534
48.2228319539448
45.1179196425296
41.9980212411421
38.913489365975
35.9254081591984
33.1101272840343
30.5779558338102
28.4438419079349
26.7407870950923
25.4892696213623
24.7245454017353
24.4987675836918
24.923860832394
25.6118455368881
25.65397181342
25.5248386304467
25.3640394396958
25.1746732336278
24.9797253564193
24.7882660729997
24.6041290342547
24.4280686877088
24.2592213483414
24.0965829710395
23.9390706247634
23.7859758042274
23.6368140124146
23.4914033440123
23.3497403720152
23.2119889675828
23.0784134034489
22.9493065445964
22.8244912495757
22.7007563793797
22.5779022432465
22.4589978480281
22.3465542321747
22.2405286396336
22.1410465872196
22.048170704085
21.9619201880473
21.8822739735868
21.8091749817516
21.7425347806079
21.6822381218058
21.6281473455401
21.5801065720204
21.5379454605663
21.5014827492651
21.4705293000739
21.4448908429077
21.4243703739872
21.4087702456228
21.3978939474884
21.3915476434812
21.3895414923458
21.3916908536227
21.3978172334686
21.4077494627801
21.4213241787003
21.4383873936766
21.4587943635469
21.482412707276
21.5091200223648
21.5388116971342
21.5713923117237
21.6067947607819
21.6449569012892
21.6858656427601
21.7294997752589
21.7759282976984
21.8251799191706
21.877455604596
21.9328372447408
21.9917455520804
22.0542949889273
22.121292376112
22.1927769287557
22.2702559687002
22.353325519326
22.4448333819125
22.5428793683047
22.64689572918
22.7509938802313
22.868345177762
22.9861979004651
23.1216735655252
23.2550958142521
23.448776821474
23.1770601370009
23.2015901970984
23.5498874155449
24.2779229321522
25.3781423770329
26.8429480062883
28.6695315727536
30.8060130829376
33.1830120420781
35.751807382001
38.4778175463035
41.3405195240143
44.3282676740918
47.5066183959494
51.0176296138813
54.9743875140345
59.4484053193171
64.5372969818868
70.3043872171157
76.7969418267647
83.6512276994383
90.1837683117129
95.638835271642
99.2213403815671
100.125505625557
98.183804507654
95.5413876888747
97.6781672531841
105.614988430427
115.241919787852
120.208133542946
116.20183823918
83.5578829988848
78.9589989498072
79.6528120127855
81.4041634515277
78.4530989455721
74.3016795317103
72.2825942675389
72.4165136312487
71.3856586868108
68.3883839685031
64.0210178049235
58.9406917156061
53.7804624152779
49.2621692974956
45.4210240918861
42.1637318574507
39.3719665269136
36.9498564639376
34.7960501603086
32.7311247180787
30.6278859111427
28.4972277411265
26.3810431087336
24.3355888767268
22.4314966059695
20.7505104211215
19.3613302696976
18.295363099176
17.5782693986235
17.250519928615
17.3627648015621
17.9432277823777
18.5353932462148
18.4462834011071
18.1848545850793
17.9016682070355
17.6105826968755
17.3348329963877
17.0812694454611
16.8509103632751
16.6419110780654
16.451326055941
16.2764562449215
16.1148850897484
15.9647799378439
15.8247018016073
15.6936097158555
15.5707194880371
15.455462409355
15.3473987101493
15.246044994516
15.1497677046149
15.0571772065505
14.9689941505847
14.8863472427448
14.8098456595495
14.7391653095278
14.6741147944073
14.6144886633304
14.5600820226372
14.5106903880161
14.4661106917356
14.42614244576
14.3905888074036
14.3592575791598
14.3319621181422
14.3085220415183
14.2887638868646
14.2725215547299
14.2596366767641
14.2499588813902
14.2433459794217
14.2396640685835
14.2387875963602
14.2405993992813
14.2449907731153
14.2518614896709
14.2611200572068
14.2726836417556
14.2864787816798
14.3024411464733
14.3205174672811
14.3406640726627
14.362852183011
14.3870626269748
14.4132990931449
14.4415732357309
14.4719357594541
14.5044381780356
14.5392040277154
14.5763375626823
14.6160811200592
14.6586050799243
14.7043514061917
14.7535600599161
14.8070259897373
14.8650083969069
14.9289399071204
14.998870351318
15.0774341994092
15.1637437896185
15.2589365502098
15.3589649812851
15.4749368009053
15.5962069502615
15.7396872525132
15.884925321546
16.0791451921526
15.8160697900301
15.7063412037769
15.8248397844404
16.2054546301218
16.8414886008405
17.7181925458198
18.8276561220365
20.1267222663317
21.5839472630411
23.175848946946
24.880914182888
26.6887895715209
28.5989746256341
30.6731800931423
32.9988211537332
35.6215617530833
38.574445266748
41.9107415622408
45.6470989184649
49.7678815502158
53.928350645397
57.7422638747303
60.7805375016026
62.5382589009997
62.5335262122872
60.8381923199838
59.0916993227242
61.3248815912173
69.1127113391284
80.1782635215538
88.953054823199
88.679240319337
66.9629152783607
63.0234056814427
63.6376550964683
66.2633190247955
63.0407687755241
55.8007660946118
51.3835485650699
50.8692945449652
50.2924368154625
48.292040075049
45.2444844292973
41.696001952163
38.1149297199036
34.9814803431233
32.3257504670253
30.0866122439773
28.172624308235
26.506868682928
25.0030962957645
23.5354538701457
22.0231213979299
20.4773111804895
18.9380758404324
17.4612708918598
16.1132499343347
14.9561879837516
14.0327531337557
13.372397373717
13.001652796306
12.9561078074796
13.2605997451204
13.848872209494
14.2526993909736
14.001062176848
13.6172159226504
13.2474480171186
12.9050791253729
12.6052803198706
12.3472725309644
12.1262741818264
11.936250278863
11.7714495554138
11.6271741208919
11.499617054747
11.3858854408662
11.283730759221
11.1914486204468
11.1077095037245
11.0314693524923
10.9618231982156
10.8977323350265
10.8376110774283
10.7813213692412
10.7290380193258
10.6810438621251
10.6373279501427
10.5975487365719
10.561461877646
10.5288353785997
10.499456349999
10.4731279999182
10.4496679882481
10.4289071831213
10.410688641116
10.3948667869026
10.381306742016
10.3698837020625
10.3604824404971
10.3529968038236
10.3473292769154
10.3433905843341
10.3410993274627
10.3403816467056
10.3411709253452
10.3434075419579
10.3470386957374
10.3520182557251
10.3583068078636
10.365871543861
10.3746866917789
10.3847334221321
10.3960011543752
10.4084868191367
10.4221984726629
10.4371522641198
10.4533814877142
10.4709273808563
10.4898606496069
10.5102564956693
10.532244855908
10.5559484737244
10.5815943709173
10.6093708688099
10.639670041071
10.672762895025
10.7093343423494
10.7497301226526
10.7951647111389
10.8459472228949
10.9042864405763
10.9700293161899
11.0449567049249
11.1266914508505
11.2241677872138
11.3303113960606
11.4598800486994
11.597520315857
11.7753385546059
11.5585979743232
11.4002124276154
11.4109436071807
11.6143184864751
12.0030524490366
12.5598033969433
13.2740249637592
14.1118067504049
15.057105272443
16.0978185220298
17.2199208563493
18.4172949992531
19.6927536355051
21.0953584986615
22.6823046625584
24.4724090506606
26.480189978229
28.7346231889554
31.2337470195778
33.939460520009
36.5642993925984
38.8730670137248
40.6269442984031
41.52475771404
41.2995102357137
40.0946410999712
39.033230930618
40.7852667030926
46.8469983673364
56.6479141179972
66.7727750942808
69.7354523471861
54.4019209802883
51.7130504298115
52.6267230862139
56.438833345639
54.2680912098351
45.1060623017941
38.3805096672911
37.1373678856385
36.8051396632518
35.4456559243901
33.2453177460052
30.6792661068362
28.1125815509144
25.8719598013625
23.9818817901908
22.3998799310794
21.0506571246421
19.8679038148477
18.7757990631625
17.6841784148715
16.5433901025472
15.3680457107564
14.1998197825917
13.0953429904821
12.1157485815588
11.3077696415168
10.6981133565984
10.3125118053972
10.1730851542759
10.3004363433687
10.679654728251
11.1722013624477
11.3589327645384
10.9705137244786
10.5212622589217
10.132636075253
9.80423205451907
9.53695015260202
9.32066125031421
9.14517599350606
9.00145544773543
8.88226372189289
8.78213281925106
8.69692239686064
8.62357928529762
8.5598047910781
8.50387995861865
8.45448444037595
8.41058236570548
8.37126063543999
8.33523449234812
8.30207039455279
8.27158950148029
8.2437795507101
8.2186539694489
8.19607632444741
8.17579419628799
8.15761961508898
8.14138094549238
8.12692548579243
8.11411623255762
8.10282984732916
8.09295506436484
8.08439139684613
8.07704809062234
8.07084326831395
8.06570317888236
8.06156159033801
8.05835922336801
8.05604327186401
8.05456698094552
8.053889276219
8.05397443418609
8.05479180218371
8.05631557223241
8.05852462056731
8.0614023859878
8.06493689276922
8.06912069779673
8.07395120535999
8.079430686767
8.08556721619266
8.09237434693256
8.09987364118248
8.10809293286725
8.11707262510326
8.12685990007856
8.13752383882472
8.14913895747972
8.16182016545199
8.1756817674856
8.19091454629597
8.20769076280291
8.22633067489227
8.2470865955401
8.27050814732785
8.29694170170436
8.32735066150395
8.36213594864801
8.40303390494936
8.45027791418171
8.50568623045251
8.56795596827961
8.64395690083558
8.72963358056484
8.83681277093791
8.95619653556864
9.10836749410918
8.94725388610934
8.78813602908795
8.75373823578594
8.86646844835049
9.11940314070229
9.49593821085258
9.98485329697316
10.5599952051271
11.2114864234234
11.9322975959374
12.7127937354115
13.5486525268971
14.4429449026539
15.431885583499
16.5541116793975
17.8176647550116
19.2282558006851
20.8014603738558
22.5296502211287
24.3724987325689
26.1103265067201
27.5920896520863
28.684969574745
29.2138017373698
29.0317584003939
28.2703239587564
27.6695631488029
28.9709053021825
33.3305083206305
40.9077907105076
50.2668992450484
54.9450404202397
44.1163058129982
42.7355863638907
44.107123888154
49.0819214550815
48.8929149421984
39.0745732884403
30.0777360247975
27.9459504844283
27.7114458094559
26.7865790366448
25.162684086986
23.2632606458983
21.3847569404959
19.7519726597563
18.3837178065033
17.2482372729105
16.28015720069
15.4193947914791
14.5987364373634
13.7539593898215
12.8580593861431
11.9308799720451
11.0170866882662
10.1731526022145
9.45299943131158
8.88996315359826
8.49966906757969
8.30187336157054
8.30962322562662
8.52265144598599
8.88835068071814
9.23603293141486
9.23644121748599
8.77992853742391
8.33850087831726
7.99113583857051
7.71901997513746
7.51059592728376
7.35022083946162
7.22578222837971
7.12793164116431
7.04983816550494
6.98658797428852
6.93461702523202
6.89135963852146
6.85492906444079
6.82393361198434
6.7973155998513
6.77423217588761
6.7538327787972
6.73540633510707
6.71875627552855
6.70373448677062
6.69028742119687
6.67836296507977
6.66783239821353
6.65852718342094
6.65031979318572
6.64309621266986
6.63675685551038
6.63121405341645
6.6263904390156
6.6222176789028
6.61863545024379
6.61559061303479
6.61303653154953
6.61093248148106
6.60924316561929
6.60793826441584
6.60699205344769
6.60638306671584
6.60609380044703
6.60611045125549
6.60642269495642
6.6070235106553
6.60790905690504
6.60907858614894
6.6105344650975
6.61228216056859
6.6143304833374
6.61669166244266
6.61938204184605
6.62242197523721
6.62583765783737
6.62966012648281
6.63392977949526
6.63869271430688
6.64401143400798
6.64995393195399
6.65661830474766
6.66410560982399
6.67257319199151
6.68217196871871
6.69316033831227
6.70576197390615
6.72041325386139
6.73743434874124
6.75758035943553
6.7812673377565
6.80983961616965
6.84370605248888
6.88451409557861
6.93158971211179
6.99011811511368
7.0580452707335
7.14444284978041
7.24466653341879
7.37137578669501
7.25845828098483
7.11782032725413
7.06688670256729
7.13066878798355
7.30413231289338
7.57292816099235
7.92627731903225
8.34378474182614
8.8182449370175
9.34502328423849
9.9171832483646
10.5313290063754
11.190023357938
11.9196618396603
12.7472361256326
13.6762426743103
14.7081507742896
15.8510628028253
17.0964145923086
18.4085457239933
19.6251369725259
20.6442794774573
21.3893965289818
21.7561715966299
21.6593621822154
21.1995497270492
20.8719723898073
21.8481088874533
24.9775390062688
30.5474464619607
38.2036357214392
43.1714198688094
35.7106877647212
35.3274064616097
37.0637995218069
42.8805428225181
45.1096474199849
35.9253788423435
24.8354555584847
21.5875319601275
21.322149204756
20.7027051109592
19.4902408836577
18.0640858924037
16.6728297724604
15.4715685942123
14.4735585292385
13.6528099415651
12.9501675110097
12.3096931574547
11.6724439620588
10.9946078017293
10.2667948602634
9.5148826189526
8.7862033994412
8.13476617796985
7.60515271832071
7.21866209014168
6.98227051562797
6.90810251437911
6.9978384264079
7.23118196755518
7.53234171422723
7.73694149205733
7.61659412144989
7.1663758349755
6.78461420367252
6.50593997607168
6.299619560045
6.14863356081961
6.03687059981865
5.95328106596719
5.88989330286168
5.84116470725254
5.8032076152539
5.7732677151277
5.74938625399594
5.73014061527277
5.71448701416556
5.7016304933613
5.69092208383729
5.68169821997663
5.67364138679047
5.66659982473743
5.6604636244396
5.65517721514356
5.650680213789
5.64687246789836
5.64364201058556
5.64090327692052
5.63858105021553
5.63661069346073
5.63493636655102
5.63350986329292
5.63228969884738
5.63124036986078
5.63033174998373
5.62953858712542
5.62884005719255
5.62821939149479
5.62766352536209
5.62716279324172
5.62671065624309
5.62630345893374
5.62594021280554
5.62562241227744
5.62535388829211
5.62514070415567
5.62499108730813
5.62491544232636
5.62492635281174
5.62503877312371
5.62527012356578
5.6256408262054
5.62617431754574
5.62689842166064
5.62784479017142
5.62905228455686
5.63056460069343
5.63243796704361
5.63473405238951
5.63753742300604
5.64093764249957
5.64506649952764
5.65005671213476
5.65612037146699
5.66345549587564
5.67241444706654
5.68328809773213
5.69667736564948
5.71298573427706
5.73326711095214
5.75800198875126
5.78861252329525
5.82485591330313
5.87062108122001
5.92509110649431
5.99515431548726
6.07922581195169
6.18477921408092
6.10852998907682
5.9908336555754
5.93586518910809
5.97134929604452
6.09495604072623
6.2949915311811
6.56161385379008
6.87857111435128
7.23999525349196
7.64248126953037
8.08083265441591
8.55225522807065
9.05876955462469
9.61991278442734
10.2552732350956
10.9663852020751
11.7527287298323
12.6182353658522
13.5548589387663
14.532663846604
15.431448860986
16.178849328772
16.7279150479351
17.0134335306273
16.9822950857571
16.7083804122644
16.5356461650322
17.2863676166753
19.5916915192757
23.6879601269226
29.6169087864823
34.0767293197597
29.0471289162447
29.2606045580099
31.1390756420946
37.3093367401059
41.9144473468921
34.4851737468611
21.768468759294
17.1219269424315
16.6872351275955
16.2844122137167
15.3775110594282
14.299815776356
13.2652355187219
12.380206377259
11.652611557281
11.0590956341248
10.5446047206201
10.0567319679286
9.54525292623282
8.9834970519751
8.37641227313731
7.75562216460941
7.16937173116788
6.66628594746993
6.28014164520832
6.02173024337772
5.89104836347208
5.89231008824001
6.01661996641999
6.23003632230724
6.45149972801989
6.54634976884478
6.37277270690802
5.97799196293215
5.67378022604652
5.46324511505682
5.31332401046186
5.20727373853258
5.13124769035899
5.07634025662419
5.03630883739294
5.00692189196792
4.98523792639183
4.96919601932748
4.95733558125156
4.94860093017202
4.94221667033779
4.93758618548541
4.93419912750582
4.93163477333257
4.9297080909064
4.92830348937687
4.92733881801279
4.92676396600872
4.92652374178767
4.92654243653061
4.92674320202493
4.92706688667324
4.92746241633091
4.92788672935249
4.92830352750404
4.92868244660538
4.92899840049988
4.92923104110717
4.92936430719279
4.92938603839847
4.92928762279305
4.92906369244458
4.92871182951238
4.92823230428612
4.92762783619776
4.92690337647235
4.92606591245046
4.92512429942478
4.9240891251996
4.92297261103775
4.92178854692084
4.92055229263562
4.91928078236085
4.91799267591752
4.91670845832723
4.91545086317703
4.91424495168871
4.91311917310029
4.91210509829799
4.91124001272763
4.91056531562404
4.9101322994314
4.90999753932344
4.9102354629856
4.91092663773529
4.91218408558255
4.91412620890391
4.91693140893161
4.92077678886927
4.92595392284316
4.93272712542688
4.94158615182986
4.95291259235305
4.96755159228768
4.98600458851344
5.00947617314653
5.03803717276034
5.07461643033881
5.11914370648328
5.17689895888099
5.24817265580187
5.33713236942916
5.28744208660941
5.19150401004124
5.13809168974329
5.15640932147322
5.24692258295847
5.40051875593144
5.60847640425735
5.85757154100236
6.14273237524488
6.46124105513895
6.80906958159059
7.18387178174964
7.58724308683768
8.03399393160185
8.53886793375807
9.1025644952857
9.72370298721516
10.4038853505958
11.1359233953813
11.8949061984156
12.5901757529331
13.1678089770517
13.5969016344142
13.8344280829952
13.845134984641
13.683643338507
13.5985268323129
14.190453278117
15.9403417318879
19.01861372773
23.5540803780019
27.2651012484466
23.8974304256957
24.3955863849446
26.2070217844352
32.22813362571
38.8005998936089
33.8903971195947
20.3633736284234
14.0187981537605
13.2459265590255
12.9894591371482
12.3167853281315
11.5030589895378
10.7362072424933
10.0882587479047
9.5619333698923
9.13460554640396
8.75432193505889
8.37256442120938
7.94861355278041
7.47077822227714
6.95569707683873
6.43926780581925
5.96791606086886
5.58227041057142
5.30512554850596
5.13884028659946
5.07812380037167
5.12042981638896
5.24941139748934
5.42574540664588
5.5764647700659
5.6028181553088
5.42391293466331
5.10220149830086
4.8701159885735
4.71507701964708
4.60765974042089
4.53382021535885
4.48255228112036
4.44701242775761
4.42243769783548
4.40563843721075
4.39439687781889
4.38716601429838
4.38284768710828
4.38064843875954
4.37998258925373