/*--------------------------------*- C++ -*----------------------------------*\
| =========                 |                                                 |
| \\      /  F ield         | OpenFOAM: The Open Source CFD Toolbox           |
|  \\    /   O peration     | Version:  4.1                                   |
|   \\  /    A nd           | Web:      www.OpenFOAM.org                      |
|    \\/     M anipulation  |                                                 |
\*---------------------------------------------------------------------------*/
FoamFile
{
    version     2.0;
    format      ascii;
    class       volScalarField;
    location    "30000";
    object      p;
}
// * * * * * * * * * * * * * * * * * * * * * * * * * * * * * * * * * * * * * //

dimensions      [0 2 -2 0 0 0 0];

internalField   nonuniform List<scalar> 
21000
(
0.92412609018137
0.944801320136608
0.947285403899966
0.967352683512772
0.98301286525807
0.993300649580898
0.998237310688953
1.00073296119443
1.00270561563302
1.00429253847874
1.00569703317364
1.00681425503339
1.00772514825031
1.00849302293192
1.00917378499618
1.0097728895608
1.01034407432752
1.01089130103513
1.01146930245593
1.01209275490956
1.01276860636297
1.01350174922509
1.01427948589199
1.01507670848063
1.01585530902357
1.01656216414295
1.01721121352385
1.01778031801744
1.01825230557324
1.01864238722106
1.01885397512431
1.01909400562445
1.01860509252816
1.01873393160008
1.01885156334881
1.01934877649317
1.02010014829148
1.02120652299693
1.02262307392269
1.02436526456745
1.02640758367196
1.02874308653623
1.03135403846972
1.03422923867955
1.037354855716
1.04071937759885
1.04431051447581
1.04811654770309
1.05212521416377
1.05632405824047
1.06070004210579
1.0652396580457
1.06992881046244
1.07475289315018
1.07969685825448
1.08474538257656
1.08988295282584
1.09509398522996
1.10036296709377
1.10567459743351
1.11101391979543
1.11636645024147
1.12171829256756
1.12705624124033
1.13236786918659
1.13764159945085
1.14286676111144
1.1480336284566
1.15313344507455
1.15815843309446
1.16310178925242
1.16795766892787
1.17272116002533
1.1773882480095
1.18195577439702
1.18642138886174
1.19078349944892
1.19504121660809
1.19919430265946
1.20324310980561
1.20718853896165
1.21103196612811
1.214775229719
1.2184205239383
1.22197045485644
1.22542784511355
1.22879594910325
1.23207803579687
1.23527796924089
1.23839926303714
1.24144648977713
1.2444231126861
1.24733477262127
1.25018432618751
1.25297936607259
1.25572092852616
1.25842057446913
1.26107465827018
1.26370329699483
1.26629135960493
1.26887786602533
1.2714201268996
1.27400000129528
1.27651023859644
1.27912686101474
1.28159657993883
1.28429948430316
1.28665814479632
1.28943482664662
1.29206425862721
1.29502168460783
1.29800998704744
1.30116702826814
1.30434875079453
1.30753376969051
1.31064576298987
1.3135340359245
1.31601458873567
1.31793448175888
1.31909035890068
1.31936926074855
1.31858351625685
1.31683664163796
1.31424084789121
1.31068538840612
1.30585823823177
1.29966572445014
1.29106704483291
1.27964887784557
1.26177593313075
1.23553841021005
1.19821793112382
1.14638107754699
1.07495375877176
0.983555892338836
0.885905230840657
0.837832366797785
0.851055316718022
0.870646571115187
0.912272326386101
0.924145087551821
0.944806219899687
0.947320365139472
0.967260838473435
0.982834252317886
0.993116954495447
0.998118200081923
1.00065952323823
1.00265056235195
1.00424868308158
1.00566288696255
1.0067922809124
1.0077134296524
1.00848892572185
1.00917576769194
1.00977957380971
1.01035392062395
1.01090261819171
1.01147965847329
1.01210090378282
1.01277387638701
1.01350408413905
1.01427975426077
1.01507662098904
1.01585748024547
1.01656783528064
1.01721997423721
1.01779196482953
1.01826577184037
1.01865722851772
1.01886822272243
1.0191095575727
1.01862538585174
1.01875788395372
1.01887582484854
1.01937409112585
1.02012600366512
1.0212329891555
1.02264999171711
1.0243925963781
1.02643522336947
1.02877094216645
1.03138198988332
1.03425716070299
1.03738261027886
1.04074682183857
1.04433750078202
1.04814292765807
1.05215084031604
1.0563487867598
1.06072373472587
1.0652621840433
1.06995004825473
1.07477273123317
1.07971519689493
1.08476213520534
1.08989804686857
1.09510736225684
1.10037458309795
1.10568442277595
1.11102193892614
1.11637266119882
1.1217227062852
1.12705888068976
1.13236876838563
1.13764080237164
1.14286432051687
1.14802960469819
1.15312790487772
1.1581514483573
1.16309343587985
1.16794802572035
1.17271030763627
1.1773762679833
1.18194274829512
1.18640739748349
1.19076862214607
1.19502553070027
1.19917788293532
1.2032260281263
1.20717086393229
1.21101376287983
1.21475655971702
1.21840144493638
1.22195102079738
1.22540810625829
1.22877595198021
1.23205782350852
1.23525758143323
1.2383787363498
1.24142585795276
1.24440240695383
1.24731402235086
1.25016355818985
1.25295860751896
1.25570020269152
1.25839991010669
1.26105407460807
1.2636828304952
1.2662710213529
1.26885771217192
1.27140014462265
1.27398028561541
1.27649072128025
1.27910769396351
1.28157757070796
1.28428100065665
1.286641985969
1.28942874533794
1.29207329576961
1.29504766797919
1.29805278794723
1.30122634387426
1.30442094592019
1.30761484426437
1.31072737783337
1.31360431760201
1.31606167156816
1.31794669367374
1.31905843959496
1.31928606687985
1.31844978397534
1.31665982558599
1.31402049592611
1.31041046199506
1.30551820571601
1.29923133699431
1.29050097468266
1.27885390897196
1.26064376534967
1.23400720028
1.1962272442401
1.14389116121207
1.07211378782592
0.980984400640603
0.884781783427749
0.838065093588443
0.851453574923354
0.870881198993954
0.912351811911626
0.9241759183219
0.94482929115413
0.947369388619039
0.967203685078977
0.982694219126487
0.992959043273603
0.99800842787889
1.00058957208823
1.00259823794766
1.0042069254384
1.00563014903355
1.00677085995251
1.00770179451462
1.0084846299698
1.00917737098981
1.00978576056398
1.01036327669588
1.01091351675039
1.01148976650568
1.01210890675119
1.01277903085383
1.01350622759628
1.01427960271105
1.01507574072839
1.01585840574644
1.01657187484577
1.01722693583339
1.01780175171496
1.01827755271644
1.01867063529741
1.0188820060454
1.0191260936666
1.01864499906951
1.01878156765467
1.0188989395788
1.01939771173567
1.02014961927868
1.02125693222761
1.02267415603433
1.02441704755527
1.02645987820982
1.02879574398955
1.03140682831248
1.03428192616396
1.03740717412665
1.04077105445036
1.04436126726453
1.04816609465474
1.05217327591898
1.05637036373191
1.0607443315742
1.0652816870535
1.06996835227159
1.07478973942035
1.07973082290476
1.08477630531667
1.0899106995698
1.09511844847344
1.10038406639566
1.10569227930249
1.11102815715112
1.11637724147636
1.12172566025249
1.12706023052721
1.13236854596401
1.13763904830918
1.14286108317574
1.14802493914309
1.15312187182139
1.15814411311396
1.16308486734674
1.16793829540289
1.17269948873074
1.17736443452628
1.18192997439052
1.18639375660577
1.1907541865348
1.19501037082515
1.19916206706614
1.20320962194385
1.20715393028534
1.21099636149798
1.21473874718389
1.21838327441609
1.22193254231393
1.22538936625079
1.22875699413402
1.23203868772247
1.23523830580986
1.23835935467297
1.2414064042584
1.24438290916166
1.24729451292678
1.25014405863387
1.25293915303579
1.25568080637396
1.25838061986343
1.26103488770616
1.26366382533932
1.26625215858572
1.26883914063153
1.27138173011512
1.27396234002397
1.27647288558604
1.2790906234276
1.28156039377342
1.2842653635771
1.28662611256104
1.28942195859827
1.29207941939788
1.29506978530712
1.29809056239041
1.30127980943223
1.30448643971517
1.30768838618089
1.31080087380919
1.31366639813947
1.31610115379549
1.31795289198827
1.31902298725529
1.31920297841493
1.31832013523533
1.31649021160893
1.31380967469224
1.3101478819901
1.30519324501698
1.29881653193528
1.28995963069411
1.2780979767176
1.25958046155874
1.23259107391388
1.19442173767441
1.14170354331756
1.06976936110514
0.979162580480226
0.88451386611702
0.838860513703051
0.85204243049949
0.871152070125943
0.912453053834247
0.924229326191456
0.944871904234949
0.947431769536124
0.967157874322996
0.982569932242786
0.99281895663465
0.997908142539838
1.00052315374417
1.00254755187259
1.0041662035014
1.00559808990708
1.00674977507373
1.00769030338443
1.00848037785976
1.00917894102494
1.00979182510566
1.01037243391243
1.0109241571932
1.01149958839225
1.01211653751957
1.01278365531154
1.0135076225575
1.01427843459338
1.01507355775826
1.01585772537302
1.01657409470622
1.01723204022133
1.01780971501201
1.01828773813685
1.01868231581616
1.0188951170411
1.01914078858516
1.01865962209841
1.01879930503936
1.01891599483129
1.01941483178104
1.02016682787262
1.02127471492725
1.02269255086884
1.02443613481569
1.02647956110382
1.02881592428849
1.03142735140772
1.03430264046524
1.0374279153361
1.04079166456307
1.04438158944522
1.04818597929818
1.05219257912313
1.05638894958915
1.06076207223906
1.06529846396835
1.06998405464936
1.07480426563721
1.07974408393071
1.08478822560583
1.08992121420809
1.09512750487811
1.10039162449253
1.10569831153378
1.11103264826967
1.11638018817042
1.12172707060337
1.12706012331935
1.13236694987483
1.13763600099229
1.142856630275
1.14801913325447
1.15311477143169
1.15813578153908
1.16307537169155
1.16792770555987
1.17268787643353
1.17735187246849
1.18191653542474
1.18637951301631
1.19073920941248
1.19499472950222
1.19914582867943
1.2031928510118
1.20713668848372
1.21097870731508
1.21472073595994
1.21836495795662
1.22191396931694
1.22537058164415
1.22873804018807
1.23201960263557
1.23521912619355
1.23834011235445
1.24138713152686
1.24436363077436
1.2472752584218
1.25012484673679
1.25292001530224
1.25566175352398
1.25836169401698
1.26101608624188
1.26364521567348
1.26623370434905
1.26882097006475
1.27136371835998
1.27394477581592
1.27645543358611
1.27907393198842
1.28154362581889
1.28425037423742
1.28660904594014
1.28941344743976
1.29208332554509
1.29508977327189
1.2981265970395
1.30133181228168
1.30455057067921
1.3077603595951
1.31087246510815
1.3137260734492
1.31613781799454
1.31795619849101
1.31898503984223
1.31911840228616
1.31819012293634
1.31632055160913
1.31359834518241
1.30988433501423
1.30486663921305
1.29839973230604
1.28941661964264
1.27734699256004
1.25854281927168
1.23123841913302
1.19274666917074
1.13977149484873
1.06790653803419
0.978153395698435
0.885314601107753
0.84049293396852
0.852971289113712
0.871498681143616
0.912564828517938
0.924315362615335
0.944943098654013
0.947525845908333
0.967126880950048
0.982446616232766
0.992686701919524
0.997813024911496
1.00045798473454
1.00249656143002
1.00412479513488
1.00556528933082
1.00672809449215
1.00767846383465
1.00847600805185
1.00918058339078
1.0097980764062
1.01038182790909
1.01093502494699
1.01150953272689
1.01212403712906
1.01278775304552
1.01350798492492
1.01427566919983
1.01506922831204
1.01585442972434
1.01657341477011
1.01723414027027
1.01781465744504
1.0182950593875
1.01869087828113
1.01890580711077
1.01915100417621
1.01866750514589
1.01880943544749
1.01892565099048
1.01942452214987
1.02017713271184
1.02128625598236
1.02270544157884
1.02445040134608
1.02649501407969
1.02883235520447
1.03144449548541
1.03432024622913
1.03744572883687
1.04080945026134
1.04439912237469
1.04820305058009
1.05220899246118
1.05640452279336
1.06077663586606
1.06531186183257
1.0699961422168
1.07481491592241
1.07975319153596
1.08479569970165
1.08992697821718
1.0951314996475
1.10039380833449
1.10569866017086
1.1110311544431
1.11637686099776
1.12172193468927
1.12705321764914
1.13235832653774
1.13762572375555
1.14284477307039
1.1480057786048
1.15310000886277
1.15811970601295
1.16305808209459
1.16790930327045
1.17266846399254
1.17733155236564
1.1818954090221
1.18635767959395
1.19071676537958
1.19497176770194
1.19912243789386
1.20316911548429
1.20711268774195
1.21095451580731
1.21469642325517
1.218340588321
1.22188960244247
1.22534627185394
1.22871383806507
1.2319955532644
1.23519527242302
1.23831649013327
1.24136377703871
1.24434057114688
1.24725252598265
1.25010246569107
1.25289802523778
1.25564016962914
1.25834055663048
1.26099539090516
1.26362502726712
1.2662139824144
1.26880183888465
1.27134504285371
1.27392682921559
1.27643786545449
1.27905737918051
1.2815271911159
1.28423584250496
1.28659186544258
1.28940453021316
1.29208657634573
1.29510908599833
1.29816191290153
1.301382671823
1.30461269006723
1.30782887030299
1.31093851945421
1.31377759284025
1.31616370368836
1.31794635780713
1.31893205026969
1.31901760779604
1.31804335641284
1.31613323521857
1.3133673062321
1.30959826999175
1.30451372893936
1.29795164937086
1.28883627785141
1.27655496086689
1.25747159800052
1.22987581541764
1.19111298927649
1.13798794057797
1.06639871631509
0.977830121023176
0.887144030754055
0.843082739742668
0.854417450507225
0.872022607453041
0.91270299845796
0.924453430692319
0.945058518838358
0.947677089764557
0.967128766357413
0.982320662829295
0.992558584154281
0.997722980413659
1.00039451363546
1.00244551523331
1.00408272418479
1.00553166510997
1.00670571800674
1.00766621239067
1.00847149437783
1.00918231184409
1.00980455697666
1.0103915188766
1.01094618121607
1.01151962794536
1.01213134835767
1.01279112689786
1.01350691558962
1.0142706409029
1.0150617592345
1.01584717141392
1.01656816360763
1.01723125810494
1.01781432759464
1.01829701877276
1.01869361801241
1.01891089576974
1.01915279750862
1.01866598614081
1.01880954464728
1.01892584873277
1.01942533502158
1.02017959949398
1.02129108072654
1.02271266637317
1.02445988840141
1.02650636002211
1.02884514531803
1.03145826432007
1.03433456610209
1.03746018584878
1.04082366893132
1.04441275214316
1.04821577138701
1.05222050842013
1.0564145627776
1.06078495183647
1.06531823390344
1.07000037379227
1.07481683589784
1.07975266467187
1.08479261613076
1.08992125290216
1.09512307699678
1.10038266167289
1.10568479126016
1.11101459241672
1.116357660883
1.12170017553547
1.12702900032378
1.13233177127666
1.13759696751559
1.14281396678827
1.14797308441566
1.15306559735361
1.15808375357021
1.16302076839905
1.16787080897692
1.17262896862752
1.17729123245896
1.18185443650014
1.18631622040711
1.19067497842123
1.19492980390901
1.19908043967587
1.20312721621057
1.20707101169031
1.21091317786917
1.21465552946189
1.21830023550155
1.22184987952544
1.22530725902418
1.2286756093562
1.23195817411316
1.23515880432517
1.23828098418746
1.24132928515421
1.2443071480991
1.24722023240466
1.25007133226491
1.25286809768167
1.25561146767185
1.25831314888953
1.26096927786422
1.26360031330521
1.26619061198597
1.26878000003382
1.27132454616793
1.27390803460572
1.27642026667183
1.27904175997102
1.28151233656187
1.28422359753505
1.28657720048662
1.28939792807564
1.29209016797402
1.29512673116825
1.29819295133386
1.30142606496103
1.30466352168606
1.30788162134194
1.31098359722301
1.31380266588584
1.31615828254531
1.31790120688868
1.31884079432219
1.31887695939839
1.31785662356884
1.3159059550889
1.31309490050826
1.3092682959096
1.30411283093151
1.29744973600349
1.28819430112046
1.27569470544177
1.25633629420278
1.22846865326538
1.1894783848496
1.13629343677001
1.06514794869819
0.978033009189527
0.889811173014272
0.846560040014764
0.856474457672386
0.872830647448307
0.912902366617588
0.924672263418453
0.945238342757434
0.947914272384596
0.96718881652919
0.98219414289723
0.992429232035616
0.997638163897719
1.0003335438146
1.00239498819116
1.00404027440975
1.00549733634216
1.0066826877502
1.00765357522734
1.008466860892
1.00918415917938
1.00981130154656
1.01040153474376
1.01095763553116
1.01152984122341
1.01213834972246
1.0127935134368
1.01350394264571
1.01426259224509
1.01505002184174
1.01583438451715
1.01655634204235
1.01722096770558
1.01780591552647
1.01829046772509
1.01868711943708
1.01890642385817
1.01914137902194
1.01865220445146
1.01879713592759
1.01891466669409
1.01941619918448
1.02017382601932
1.02128930895311
1.02271465546372
1.02446517523797
1.02651417500924
1.02885474931276
1.0314688881231
1.03434552118315
1.03747082417874
1.04083341120931
1.04442106578546
1.04822217607821
1.05222456593827
1.05641587799715
1.06078318009502
1.0653130730416
1.06999154818302
1.07480412489879
1.07973590280275
1.08477168078045
1.08989606590114
1.09509360796811
1.10034892645393
1.10564685028812
1.11097254824004
1.11631165508486
1.12165038512383
1.12697563370562
1.13227506395651
1.13753717760688
1.14275137048882
1.14790797153108
1.15299826697333
1.15801450997589
1.1629499172752
1.16779865396893
1.17255580828498
1.17721735757743
1.18178012789039
1.1862417470473
1.19060059605866
1.19485575396128
1.19900694861307
1.20305449505981
1.20699925618353
1.21084256830907
1.21458623168999
1.21823240075327
1.22178364648737
1.22524275304147
1.22861294605267
1.23189745611529
1.23510012802958
1.2382244475505
1.24127498873762
1.24425515175559
1.24717060782018
1.25002414548039
1.25282344774123
1.25556940789707
1.25827380363942
1.26093266883831
1.26356662292549
1.26615978170646
1.2687523434302
1.27129981427022
1.27388677140281
1.27640174127513
1.2790270774519
1.28149973696681
1.2842154334476
1.28656761861471
1.28939698456178
1.29209471527611
1.29514039260136
1.29821376331925
1.30145225683558
1.30468948263175
1.30790125864919
1.3109865618373
1.31377673340867
1.31609416474966
1.3177911149628
1.31867998274015
1.31866416151776
1.31759745610736
1.31560669483602
1.31274956713445
1.30886302043654
1.30363214750811
1.29686109632778
1.28745555880528
1.2747268814969
1.25509104748228
1.22696135500988
1.18777066735018
1.13458517163736
1.06399613848651
0.978521841169403
0.893004909387758
0.850698260299753
0.859122879938439
0.874002650909314
0.913210117052172
0.924999852833242
0.945502248550215
0.948262138193285
0.967334771085254
0.982081562816213
0.992287574630709
0.997557847371585
1.00027556808403
1.0023454466962
1.00399765872721
1.00546235974065
1.00665900733074
1.00764056520409
1.00846213813974
1.00918618234388
1.00981838263599
1.01041194798729
1.0109694415844
1.01154017418248
1.01214493843763
1.01279464601218
1.01349856035427
1.01425069106351
1.01503275877959
1.01581430797695
1.01653568727733
1.01720051539364
1.01778624286166
1.0182718684196
1.01866758473161
1.01888800142417
1.01911170450214
1.01862376363733
1.0187703770191
1.0188911140667
1.01939722286758
1.02016073491413
1.02128242602049
1.02271318364492
1.02446811715939
1.02652022207419
1.02886270905166
1.03147758692456
1.03435393393112
1.03747801105374
1.04083854721299
1.04442340767586
1.04822106670929
1.05221941956864
1.05640618773859
1.06076851590626
1.06529305292703
1.06996585473201
1.0747725270929
1.07969823853996
1.08472785349654
1.08984604493272
1.09503742818908
1.10028668491578
1.10557870261428
1.11089870410546
1.11623237313204
1.12156596739216
1.12688641972741
1.13218142468724
1.13743950929167
1.14265008863695
1.14780350508618
1.15289105279063
1.15790498768539
1.1628385246004
1.16768582254044
1.17244195998069
1.17710290139297
1.1816654573642
1.18612723817895
1.19048660579226
1.19474261905113
1.19889498508251
1.20294399782192
1.2068904994466
1.21073580565827
1.21448169750793
1.2181303103069
1.2216841987229
1.22514612973623
1.22851931617065
1.23180697694824
1.23501295879632
1.23814071368828
1.24119481101447
1.24417865676347
1.24709794155609
1.24995542416449
1.25275883188833
1.25550900254996
1.25821781229111
1.26088116459647
1.26351989477379
1.26611780602519
1.26871559168546
1.27126802126051
1.27386071349838
1.27638051030472
1.27901217499786
1.28148884891872
1.28421162642326
1.2865648031391
1.28940390117646
1.29210002961873
1.29514722723827
1.2982183305998
1.30145217770097
1.30467851329504
1.30787278191376
1.3109295236922
1.31367914080244
1.3159480820466
1.31759038977088
1.31842173979472
1.31834946091673
1.3172345763801
1.31520303856895
1.31229795533655
1.3083480036985
1.30303564487938
1.29614730405799
1.28657790018366
1.2736030552209
1.25367747066922
1.22528124910004
1.18589621939133
1.1327381845645
1.06277308496743
0.979063613400247
0.896425448613766
0.855228451685015
0.862254757429372
0.875563909413752
0.913670113632808
0.925452285613852
0.945862495638408
0.948733958074402
0.967588537589574
0.982008487790514
0.992123670428256
0.997479760992783
1.00022077861113
1.0022973107124
1.003955089815
1.00542678484906
1.00663467244815
1.00762719572782
1.00845736582586
1.0091884572106
1.00982590022803
1.0104228637054
1.01098168638279
1.01155065721226
1.01215103142617
1.01279426430556
1.01349024981875
1.0142340677621
1.01500865047888
1.01578510089238
1.01650385923072
1.01716709913201
1.01775213593012
1.01823772330707
1.01863125741596
1.01885124284093
1.01905926045028
1.01857923648487
1.01872867240325
1.01885577901846
1.01937022197385
1.02014289409149
1.02127332244452
1.02271111679055
1.02447132090553
1.02652670906781
1.02887076237537
1.03148560716287
1.03436057095091
1.03748206837358
1.04083900503206
1.04441937405493
1.04821177646806
1.05220421356746
1.05638452525312
1.06073993397055
1.065257167153
1.06992238396778
1.07472127799019
1.0796391012102
1.08466079839742
1.08977112064295
1.0949547576583
1.10019646068334
1.10548118163447
1.11079420181951
1.11612125711495
1.12144865063894
1.12676335372965
1.13205309246454
1.13730641846652
1.14251276472635
1.14766248508425
1.15274687915108
1.15775820277386
1.16268966568209
1.1675354173361
1.17229052281721
1.17695092994677
1.18151343001883
1.18597561192685
1.19033581475828
1.19459307343459
1.19874707075394
1.20279807609459
1.20674690771724
1.2105948576909
1.21434368521157
1.21799550403382
1.2215528505255
1.22501847232798
1.22839557259507
1.23168735348804
1.23489764336359
1.23802988766174
1.24108867073371
1.24407737953711
1.24700172599867
1.24986444219685
1.25267330879413
1.25542910702929
1.25814382947677
1.26081323925347
1.26345842339989
1.26606283765542
1.26866775121839
1.27122709779083
1.27382770700361
1.27635447072515
1.27899498319589
1.28147787284945
1.28421067027329
1.28656816471818
1.28941786177378
1.29210480106898
1.2951451140551
1.29820367390714
1.30142212325838
1.30462621967402
1.30779102046981
1.31080663302667
1.31350318836125
1.31571212200411
1.31728960226638
1.31805487722892
1.31791965068503
1.31675225590895
1.31467647326688
1.31171900023445
1.30769969517035
1.30229706728487
1.29527891690227
1.28552788556895
1.27228448819537
1.25204892037434
1.22337118692869
1.18378541717763
1.13066951832336
1.06138174560794
0.979532795185053
0.899887270837521
0.859940840843255
0.865730580706175
0.877486060484634
0.914309386022984
0.926032460155122
0.946320680505613
0.94932894196829
0.967959527249583
0.982000633358676
0.991937484651239
0.997400106347848
1.00016899082078
1.00225094915219
1.00391280352547
1.00539067731531
1.00660968559669
1.0076134891233
1.0084525973771
1.0091910805581
1.00983398214964
1.01043441917344
1.01099448978621
1.01156135102988
1.01215657199661
1.01279213158701
1.01347851794281
1.01421189678922
1.01497647191186
1.01574510891695
1.01645883331479
1.01711838136406
1.01770100622656
1.01818514389279
1.01857492830986
1.01879241962241
1.01898118911817
1.01851876828061
1.01867317241577
1.01881106336515
1.01933831901606
1.0201234738377
1.02126473921517
1.02271056665343
1.02447622603316
1.0265344742796
1.02887925798284
1.03149294113323
1.0343652000538
1.03748266603652
1.04083447198945
1.04440877332386
1.04819432611105
1.05217926477328
1.05635154809344
1.06069849528155
1.06520693569547
1.06986312806085
1.07465285955322
1.07956147120228
1.08457399372399
1.08967526005138
1.0948500364472
1.10008314546955
1.10535960458064
1.11066475422616
1.11598438265022
1.12130483825726
1.12661313042315
1.1318970160091
1.13714507023813
1.14234674276802
1.14749239748645
1.15257333785935
1.15758181788955
1.16251104032301
1.16735514308979
1.17210917581316
1.17676906754618
1.18133158814371
1.18579430295689
1.19015552607791
1.19441426641749
1.19857018043715
1.20262351104069
1.20657505078558
1.21042606645475
1.21417829393685
1.21783382411206
1.22139517375239
1.22486507288081
1.22824670918251
1.23154326401623
1.2347585653437
1.23789605008845
1.24096030538741
1.24395470266573
1.24688497747817
1.24975384027169
1.25256912764185
1.25533156873448
1.25805327685801
1.26072987970762
1.26338272539226
1.26599492358743
1.26860834353707
1.27117607036882
1.27378620661416
1.27632160923164
1.27897291370171
1.28146393167632
1.28420931778872
1.28657413758002
1.28943564771263
1.29210743109627
1.2951337991232
1.29817084719718
1.30136432410321
1.30453593763047
1.30766030393991
1.31062335609931
1.31325525381053
1.31539307002253
1.31689545756855
1.31758554586132
1.31737972800637
1.31615332997246
1.31402690473067
1.31100973180822
1.30691238270594
1.30140801399063
1.29424486370747
1.28429196401896
1.2707560064397
1.25018843235486
1.22121258667453
1.18142052487697
1.12836698437314
1.05981768870379
0.979915331154631
0.903324573611557
0.864714195163416
0.869424383700871
0.879710162902206
0.915136486323165
0.92673631002641
0.946870685875024
0.950035195296275
0.968443646046589
0.982078948848771
0.991739657906176
0.997313792399061
1.00011956068028
1.00220662299995
1.00387104775232
1.00535411846761
1.00658405569538
1.00759947691958
1.00844790177738
1.00919417354231
1.00984278913147
1.01044679004688
1.01100801161366
1.01157235603876
1.01216154667895
1.01278806950362
1.01346297006008
1.01418353781831
1.01493533734089
1.01569323046281
1.01639936445027
1.01705299473207
1.01763132071182
1.01811226341432
1.01849640062039
1.01870930448178
1.01887734727396
1.01844428166447
1.01860643934945
1.01876012164348
1.01930421420012
1.02010431838977
1.02125755880096
1.02271164749897
1.02448240491873
1.02654278985394
1.02888736185125
1.0314988092369
1.03436721711377
1.03747946875209
1.04082494996051
1.04439199441626
1.04816952678655
1.05214582218846
1.0563089599535
1.06064636408707
1.06514496976785
1.0697911349277
1.07457074187334
1.07946922267209
1.08447169608584
1.0895630779617
1.09472821178511
1.09995199205647
1.1052195022456
1.11051614228455
1.11582775302319
1.12114072828087
1.12644211548856
1.13171970219984
1.13696208702988
1.14215873598477
1.14730002256476
1.15237725354425
1.15738268042597
1.16230949821226
1.16715183244596
1.1719047163473
1.17656405918001
1.18112660827436
1.18558990430413
1.18995223519766
1.19421258266666
1.19837057564798
1.20242642940423
1.20638090964974
1.21023525680905
1.21399118243879
1.21765075350134
1.22121646741484
1.22469103364544
1.22807762306667
1.23137940351634
1.23460019923399
1.23774343223111
1.24081369357089
1.24381434306269
1.24675113856219
1.24962677245684
1.25244913382472
1.25521890642609
1.25794831713999
1.26063287074077
1.26329416285736
1.26591497998805
1.26853776559219
1.27111480054843
1.27373543226002
1.2762805233369
1.27894378128779
1.28144419383964
1.28420390827021
1.28657794454333
1.28945331700827
1.29210637805317
1.29511387969203
1.2981223890471
1.30128298435819
1.3044134240687
1.30748788751589
1.31038859022759
1.31294577490853
1.31500256998669
1.31642043500627
1.31702666407229
1.31674250747361
1.3154496365703
1.31326445593685
1.31017849130257
1.30599272136688
1.30037364444723
1.29304915786392
1.28287389979149
1.26902319757303
1.24810486893029
1.21881905412881
1.17882308552216
1.12586352049721
1.05812332365075
0.980245261121814
0.906732691035986
0.869493275361156
0.873244788163664
0.882168106326205
0.916145078260567
0.927556642987486
0.947503441995436
0.950834553780104
0.969027355739947
0.982255127129432
0.991551062310867
0.997214121140172
1.00007143112071
1.0021644183812
1.00383006502738
1.00531720514026
1.00655779850274
1.00758520057536
1.00844336569405
1.00919788515528
1.00985251931016
1.01046019549394
1.01102245783142
1.011583822991
1.012166009486
1.01278201114738
1.01344341382786
1.01414871096582
1.01488494878125
1.01562920520649
1.01632524890339
1.01697072012001
1.01754269748902
1.01801838280994
1.01839489361038
1.01860187486338
1.01875044590599
1.01835870193126
1.01853114995679
1.0187052469353
1.0192689025498
1.02008538631148
1.0212509965851
1.02271321971734
1.0244886159559
1.02655050613918
1.02889413035048
1.03150254983083
1.03436628420304
1.03747248630453
1.04081080623969
1.04436976410389
1.0481384612271
1.05210531250877
1.05625852279824
1.06058562326889
1.0650736560555
1.06970907977275
1.07447787263426
1.07936555926308
1.08435734773913
1.08943823750146
1.09459314988949
1.09980705193675
1.10506509363859
1.11035273489258
1.11565586959564
1.12096093738496
1.12625502410675
1.13152594832487
1.1367623323089
1.14195365862174
1.14709031051777
1.15216359815177
1.15716577052271
1.16209001480597
1.16693044399201
1.17168207464982
1.17634079592634
1.18090333222167
1.18536719905642
1.18973065765452
1.19399266193226
1.19815281265642
1.20221129678103
1.20616885246474
1.21002669308265
1.21378650504927
1.21745033098808
1.22102064822054
1.2245001436542
1.22789197355176
1.23119929167225
1.23442591322013
1.23757524734434
1.24065188824956
1.24365918562999
1.2466029158434
1.24948575650026
1.25231564171011
1.25509321740671
1.25783080914377
1.26052381502043
1.26319404892423
1.26582400870876
1.26845665235826
1.27104352974916
1.27367514534518
1.27623047793026
1.27890621562703
1.28141666293055
1.28419163629662
1.28657550209149
1.28946728361914
1.29209995921558
1.2950855207203
1.29806015923006
1.30118141564665
1.3042633342137
1.30727974025497
1.31010971616235
1.3125835335933
1.3145506415298
1.31587557115014
1.31639002524486
1.31602016736575
1.31465318283837
1.31240048283068
1.30923592886603
1.30495073504168
1.29920360188373
1.2917015352248
1.28128459400473
1.26710019529457
1.24581730694712
1.21621599064031
1.17602690110484
1.12320210734263
1.05634601546581
0.980559613536396
0.910121527780521
0.874255501568506
0.877136377875898
0.884797394676365
0.917316806132153
0.92848322612455
0.948209424599646
0.951706260461317
0.969692133013058
0.982531733585102
0.991400513127954
0.99709304920571
1.00002350465289
1.00212419807727
1.00379006894183
1.00528005191002
1.00653094056846
1.00757071456947
1.00843909690174
1.00920239571921
1.0098634113927
1.01047490113889
1.01103808524499
1.01159596550216
1.01217011368586
1.01277406499616
1.01341996293067
1.01410762627564
1.01482570487967
1.01555363841446
1.01623722028819
1.01687227749957
1.01743570738872
1.01790395855149
1.01827124043966
1.01847229461265
1.01860490388877
1.01826465218245
1.01844902843351
1.01864730178997