/*--------------------------------*- C++ -*----------------------------------*\
| =========                 |                                                 |
| \\      /  F ield         | OpenFOAM: The Open Source CFD Toolbox           |
|  \\    /   O peration     | Version:  4.1                                   |
|   \\  /    A nd           | Web:      www.OpenFOAM.org                      |
|    \\/     M anipulation  |                                                 |
\*---------------------------------------------------------------------------*/
FoamFile
{
    version     2.0;
    format      ascii;
    class       surfaceScalarField;
    location    "30000";
    object      phi;
}
// * * * * * * * * * * * * * * * * * * * * * * * * * * * * * * * * * * * * * //

dimensions      [0 3 -1 0 0 0 0];

internalField   nonuniform List<scalar> 
41710
(
1.27431038714359e-05
5.75627081057917e-07
1.26932476484274e-05
4.98562230106981e-08
5.71615952593361e-06
6.97708812249441e-06
-1.81682643378555e-06
7.53298595971761e-06
-5.43218704958684e-06
3.61536061579319e-06
-5.27597916936273e-06
-1.56207880223049e-07
-3.83121915887376e-06
-1.44476001048853e-06
-2.97255140241485e-06
-8.58667756460075e-07
-2.57274774563758e-06
-3.99803656774601e-07
-2.32516102145226e-06
-2.47586724185429e-07
-2.09826541663001e-06
-2.26895604821523e-07
-1.91739406394896e-06
-1.80871352682412e-07
-1.81956587822157e-06
-9.78281857257872e-08
-1.80239213889656e-06
-1.71737393229823e-08
-1.86859344778429e-06
6.62013088850717e-08
-2.04428664418375e-06
1.75693196399605e-07
-2.33293907775691e-06
2.88652433570278e-07
-2.73768802434515e-06
4.04748946582777e-07
-3.21661608987016e-06
4.78928065529595e-07
-3.72680039389126e-06
5.10184304023928e-07
-4.23688831378398e-06
5.1008791989238e-07
-4.69714930756328e-06
4.60260993774065e-07
-5.05251973601011e-06
3.55370428448887e-07
-5.25773764314013e-06
2.05217907132113e-07
-5.31585690134338e-06
5.81192582009242e-08
-5.28583625807056e-06
-3.00206432772188e-08
-5.15797961208021e-06
-1.27856645998733e-07
-4.96031998815297e-06
-1.97659623928568e-07
-4.74986037799354e-06
-2.10459610144834e-07
-4.63928795213034e-06
-1.10572425875513e-07
-4.71052384609323e-06
7.12358939661795e-08
-5.39300220827867e-06
6.82478362182633e-07
-8.42459532954908e-06
3.03159312127534e-06
-1.17250943493517e-05
3.30049901980531e-06
-1.49639101458369e-05
3.23881579649771e-06
-1.80215780997742e-05
3.05766795394399e-06
-2.08680868954749e-05
2.84650879569322e-06
-2.34606662546121e-05
2.59257935913664e-06
-2.58123660899118e-05
2.3516998352957e-06
-2.79319278663051e-05
2.11956177639447e-06
-2.98429349991691e-05
1.91100713286685e-06
-3.15628320592592e-05
1.71989706008906e-06
-3.31098790964673e-05
1.54704703720691e-06
-3.44971223197008e-05
1.38724322324154e-06
-3.57355107180812e-05
1.23838839837316e-06
-3.68326111401983e-05
1.09710042211706e-06
-3.77941827990625e-05
9.61571658856771e-07
-3.86241755988769e-05
8.2999279981165e-07
-3.93255782797263e-05
7.01402680850714e-07
-3.99006627625835e-05
5.75084482860349e-07
-4.03514341773227e-05
4.5077141473437e-07
-4.06798250331582e-05
3.2839085583818e-07
-4.08879352895998e-05
2.08110256445436e-07
-4.097814809748e-05
9.02128078773415e-08
-4.09532515581062e-05
-2.48965393710961e-08
-4.08165297454465e-05
-1.36721812660961e-07
-4.05718012177694e-05
-2.44728527673871e-07
-4.02233937928922e-05
-3.48407424874573e-07
-3.97761239356415e-05
-4.47269857251049e-07
-3.92352528164615e-05
-5.40871119190873e-07
-3.86064361545497e-05
-6.28816661910649e-07
-3.78956631241903e-05
-7.10773030362585e-07
-3.71091904617893e-05
-7.86472662400803e-07
-3.62534733768595e-05
-8.5571708493424e-07
-3.53350957971551e-05
-9.18377579708766e-07
-3.43607027506432e-05
-9.74393046488541e-07
-3.33369354028986e-05
-1.02376734775238e-06
-3.22703713804558e-05
-1.06656402244364e-06
-3.11674705162306e-05
-1.10290086422918e-06
-3.00345271374688e-05
-1.13294337875522e-06
-2.88776291997179e-05
-1.15689793774763e-06
-2.7702624656025e-05
-1.17500454369697e-06
-2.65150948904244e-05
-1.18752976560101e-06
-2.53203351888796e-05
-1.19475970154993e-06
-2.41233415229079e-05
-1.19699366597106e-06
-2.29288043824342e-05
-1.19453714047775e-06
-2.17411067896621e-05
-1.18769759277921e-06
-2.05643308056604e-05
-1.1767759840033e-06
-1.94022635457977e-05
-1.16206725984963e-06
-1.8258416638537e-05
-1.14384690725286e-06
-1.71360341458359e-05
-1.12238249269995e-06
-1.60381316416468e-05
-1.09790250418338e-06
-1.4967492290265e-05
-1.07063935139484e-06
-1.39267440051648e-05
-1.04074828509727e-06
-1.29183144443384e-05
-1.00842956083328e-06
-1.19445903092765e-05
-9.73724135073605e-07
-1.10077671600713e-05
-9.36823149201511e-07
-1.0110191225672e-05
-8.9757593440847e-07
-9.25396011790113e-06
-8.5623110775712e-07
-8.44166464925414e-06
-8.12295468647952e-07
-7.67543112240564e-06
-7.66233526856325e-07
-6.95853697461104e-06
-7.16894147793697e-07
-6.29320192305876e-06
-6.65335051555307e-07
-5.68411608196478e-06
-6.09085841098201e-07
-5.13345303039492e-06
-5.50663051571131e-07
-4.64858413500272e-06
-4.84868895388587e-07
-4.23086854525565e-06
-4.1771558974902e-07
-3.89277898387144e-06
-3.38089561386859e-07
-3.63229537083286e-06
-2.60483613036325e-07
-3.47179658973457e-06
-1.60498781111391e-07
-3.39901200749245e-06
-7.27845822355655e-08
-3.45685034589555e-06
5.78383383963025e-08
-3.60408167076169e-06
1.47231324879847e-07
-3.92667913942719e-06
3.22597468666621e-07
-4.30743078406536e-06
3.80751644648357e-07
-4.91940772155904e-06
6.11976937489557e-07
-5.44990493011155e-06
5.30497208547763e-07
-6.52660610780729e-06
1.07670117770291e-06
-6.94127985081379e-06
4.14673743007511e-07
-7.11571914128367e-06
1.74439290468024e-07
-6.77503101987487e-06
-3.40688121405592e-07
-6.03732503166588e-06
-7.37705988216833e-07
-4.89121097935563e-06
-1.14611405230498e-06
-3.41787299153984e-06
-1.47333798781585e-06
-1.65681825307773e-06
-1.76105473845852e-06
4.31327070386705e-07
-2.08814532345955e-06
2.77146197097255e-06
-2.34013490058455e-06
5.25740565599686e-06
-2.48594368503098e-06
7.82362798197335e-06
-2.56622232597813e-06
1.03875066977707e-05
-2.56387871579798e-06
1.28721925442648e-05
-2.48468584649711e-06
1.50454032789958e-05
-2.17321073472915e-06
1.68258045472811e-05
-1.7804012682905e-06
1.83662523779425e-05
-1.54044783065511e-06
1.97956592189931e-05
-1.42940684104827e-06
2.11937548673004e-05
-1.3980956483132e-06
2.27866300314208e-05
-1.59287516412512e-06
2.48024762334716e-05
-2.01584620205515e-06
2.80394010630945e-05
-3.23692482962229e-06
3.24720299824802e-05
-4.43262891938423e-06
3.82475890863591e-05
-5.77555910387392e-06
4.58839117680235e-05
-7.63632268165938e-06
5.60984524955923e-05
-1.0214540727568e-05
6.83966147326717e-05
-1.22981622370778e-05
7.71596887146844e-05
-8.76307398201183e-06
7.03378294574893e-05
6.82185925719511e-06
5.04392633950701e-05
1.98985660624229e-05
3.10707598437379e-05
1.93685035513333e-05
1.64969170968739e-05
1.4573842746863e-05
3.17818614437545e-06
4.4751700904445e-05
3.59042870826643e-06
4.25464787989342e-05
2.25507832852276e-06
2.31628991025137e-05
2.6360667818918e-05
-4.78108805584625e-07
3.11739938678224e-05
-1.37706242243652e-05
1.69078760345845e-05
-1.51512840890112e-05
1.22445198442478e-06
-1.15228015196665e-05
-5.07324257983369e-06
-9.01473318588335e-06
-3.36673609024315e-06
-7.81310635569788e-06
-1.6014304869651e-06
-7.08040252391053e-06
-9.80290555977011e-07
-6.43884853593959e-06
-8.68449592793793e-07
-5.93004520573099e-06
-6.89674682899966e-07
-5.6629654522007e-06
-3.64907939253201e-07
-5.63726959979178e-06
-4.28695917321007e-08
-5.86844224121903e-06
2.97373950309975e-07
-6.42337833981165e-06
7.3062929499864e-07
-7.32006356923572e-06
1.18533766299334e-06
-8.55408945443089e-06
1.63877483177483e-06
-1.00110540760037e-05
1.93589268710851e-06
-1.15657750787621e-05
2.06490530677374e-06
-1.31241430351238e-05
2.0684558762523e-06
-1.45478148049547e-05
1.8839327636186e-06
-1.56848064139463e-05
1.49236203744926e-06
-1.64153740094609e-05
9.3578550264546e-07
-1.67536190385946e-05
3.96364287320224e-07
-1.68390260748865e-05
5.53863930156157e-08
-1.66681811599093e-05
-2.98701560986112e-07
-1.63250991184217e-05
-5.40741665410791e-07
-1.59839023166066e-05
-5.51656411955896e-07
-1.60165436842964e-05
-7.79310581965101e-08
-1.67087818719546e-05
7.63474081631935e-07
-1.97760163199554e-05
3.74971281018909e-06
-2.86364275043311e-05
1.18920043056479e-05
-3.84522626814154e-05
1.3116334196886e-05
-4.78055958576516e-05
1.25921489727265e-05
-5.65623641062541e-05
1.18144362025476e-05
-6.45735853324862e-05
1.08577300219211e-05
-7.18081278485263e-05
9.82712187519392e-06
-7.82996686853973e-05
8.84324067217766e-06
-8.41052388384257e-05
7.92513192940851e-06
-8.92932827803199e-05
7.09905107476034e-06
-9.39237936207615e-05
6.35040790052984e-06
-9.80494252933428e-05
5.67267870978357e-06
-0.000101710792308994
5.0486102388898e-06
-0.000104939789033807
4.46738512320081e-06
-0.000107759817414551
3.91712880284843e-06
-0.000110188494156591
3.39024840092385e-06
-0.000112238824613667
2.88032325689685e-06
-0.00011392098748173
2.38356554891407e-06
-0.000115243355446963
1.89745244808199e-06
-0.000116213540908441
1.42095687621754e-06
-0.000116839037286497
9.53887233896938e-07
-0.000117127759744007
4.96832713921446e-07
-0.000117088275450433
5.07285143110097e-08
-0.000116730039569643
-3.83132420154697e-07
-0.000116063802649319
-8.02958732983063e-07
-0.000115101675869396
-1.20685530758456e-06
-0.000113856981714396
-1.59310157987088e-06
-0.000112344197052766
-1.96005451889033e-06
-0.000110578831730273
-2.30623644165102e-06
-0.000108577290560128
-2.63035783205866e-06
-0.00010635671254395
-2.93135104654887e-06
-0.00010393479971061
-3.20838549573523e-06
-0.000101329640986964
-3.46087580857181e-06
-9.85595368238441e-05
-3.68848174283338e-06
-9.56428308272931e-05
-3.89109904304738e-06
-9.25977502529422e-05
-4.06884792210096e-06
-8.94422606160819e-05
-4.22205365928954e-06
-8.61939351301666e-05
-4.35122635013342e-06
-8.28698410590858e-05
-4.4570374498484e-06
-7.94864437405791e-05
-4.54029525625147e-06
-7.6059528823573e-05
-4.60191946068042e-06
-7.26041422980308e-05
-4.64291629117767e-06
-6.91345478868274e-05
-4.66435411274533e-06
-6.56642005306302e-05
-4.66734102213238e-06
-6.22057363930667e-05
-4.65300127803917e-06
-5.87709751034783e-05
-4.6224588823624e-06
-5.53709396346033e-05
-4.57681145288412e-06
-5.20158810351813e-05
-4.51712585926349e-06
-4.87153261894774e-05
-4.44440175295572e-06
-4.54781157698376e-05
-4.3595929123408e-06
-4.23124877155014e-05
-4.2635305584838e-06
-3.92261094558694e-05
-4.15701761102534e-06
-3.62262208455355e-05
-4.04063689541144e-06
-3.33196243966762e-05
-3.91502600969559e-06
-3.05129432688971e-05
-3.7804052628733e-06
-2.78124963719141e-05
-3.63727004616029e-06
-2.52247919525012e-05
-3.48528035380122e-06
-2.27561302826378e-05
-3.32489277764074e-06
-2.04135757211373e-05
-3.15485003015227e-06
-1.82039758477303e-05
-2.97583340026329e-06
-1.61359048226246e-05
-2.78496517290707e-06
-1.42174199309435e-05
-2.58381994322853e-06
-1.24600037854514e-05
-2.36650198660329e-06
-1.0873605661722e-05
-2.13706117528711e-06
-9.47474197392443e-06
-1.88373258318253e-06
-8.27554725451383e-06
-1.61691030916165e-06
-7.30099712185575e-06
-1.31263969405253e-06
-6.56386660679394e-06
-9.9761412810247e-07
-6.10325714698002e-06
-6.21108240930775e-07
-5.92608407322905e-06
-2.49957656003691e-07
-6.09654615480461e-06
2.28300419997276e-07
-6.59365848860898e-06
6.44343658667013e-07
-7.52839236671988e-06
1.25733134676359e-06
-8.78476447538807e-06
1.63712375329562e-06
-1.05576084657965e-05
2.38482092789468e-06
-1.24780841923392e-05
2.45097293509893e-06
-1.54721698942369e-05
4.07078687958687e-06
-1.67180323995171e-05
1.66053624829969e-06
-1.69055317900997e-05
3.61938681039003e-07
-1.57259867289829e-05
-1.52023318250855e-06
-1.33686096262204e-05
-3.09508309099365e-06
-9.94594185909739e-06
-4.56878181940908e-06
-5.64148056845518e-06
-5.7777992784335e-06
-5.73002725617074e-07
-6.82953258131418e-06
5.33689444748347e-06
-7.99804249658871e-06
1.18687160751085e-05
-8.87195652821246e-06
1.87535791869011e-05
-9.37080679681348e-06
2.58135375409039e-05
-9.62618067998232e-06
3.28560394847574e-05
-9.60638065965428e-06
3.96546446964328e-05
-9.28329105818102e-06
4.56582986637305e-05
-8.17686470203951e-06
5.06527777175926e-05
-6.7748803221586e-06
5.49863269630978e-05
-5.87399707616384e-06
5.89803253737174e-05
-5.42340525168096e-06
6.29020991316293e-05
-5.31986940621887e-06
6.72716879293562e-05
-5.96246396184514e-06
7.28310553300465e-05
-7.57521360274297e-06
8.14001360646972e-05
-1.18060055642745e-05
9.32032276336526e-05
-1.62357204883362e-05
0.000108635091263979
-2.12074227342151e-05
0.000128966105689313
-2.79673371070088e-05
0.000155864818673433
-3.71132537116928e-05
0.000188266152183867
-4.46994957475173e-05
0.000213258715829412
-3.37556376275543e-05
0.000202680563053271
1.74000120333333e-05
0.000156608623217291
6.597050589841e-05
0.000103647405637584
7.23297211310385e-05
6.17626676171348e-05
5.64585807673116e-05
1.71743512298537e-05
8.48571619840076e-05
1.1357193194866e-05
7.89153172047617e-05
8.19692310776287e-06
4.75789896772161e-05
5.76969953464645e-05
6.45970561994372e-06
7.22932779250985e-05
-1.95396336552729e-05
4.29072153097908e-05
-2.45899274777072e-05
6.27474580686055e-06
-1.9514734885683e-05
-1.01484351718594e-05
-1.54115099818852e-05
-7.46996099403118e-06
-1.33750446473348e-05
-3.63789582150331e-06
-1.21477754428822e-05
-2.20755976042567e-06
-1.11014037789936e-05
-1.91482125668958e-06
-1.02738582251612e-05
-1.51722023672897e-06
-9.8467298967981e-06
-7.92036267624272e-07
-9.82949845888467e-06
-6.01010296398162e-08
-1.02539254379945e-05
7.21800929420127e-07
-1.12234667629712e-05
1.70017061996932e-06
-1.27729161216483e-05
2.73478702165438e-06
-1.48837054580234e-05
3.74956416814373e-06
-1.73724694944988e-05
4.42465672358704e-06
-2.00323169775484e-05
4.72475278980977e-06
-2.27047074170843e-05
4.74084631578804e-06
-2.51682469663005e-05
4.34747231283157e-06
-2.71835831873732e-05
3.50769825852108e-06
-2.85707603761571e-05
2.3229626914331e-06
-2.9360549635507e-05
1.18615354668113e-06
-2.97582212253939e-05
4.53057982909527e-07
-2.97832964246454e-05
-2.73626361714679e-07
-2.95805583741985e-05
-7.43479715844371e-07
-2.9458769523816e-05
-6.73445262351693e-07
-3.00542677308109e-05
5.17567148782526e-07
-3.20291857068587e-05
2.73839205766052e-06
-3.83793137195863e-05
1.00998408228784e-05
-5.31490566044799e-05
2.66617471905243e-05
-6.93963918181586e-05
2.93636694105759e-05
-8.46030484813901e-05
2.77988056359463e-05
-9.86589577595913e-05
2.58703454807443e-05
-0.000111344920010674
2.3543692273022e-05
-0.00012268953669379
2.11717385582782e-05
-0.000132771402723214
1.89251067015873e-05
-0.000141712934258632
1.68666634648522e-05
-0.000149633883877382
1.50200006935153e-05
-0.000156640612484533
1.33571365076981e-05
-0.000162820901474456
1.18529676997214e-05
-0.000168243493670631
1.0471202435041e-05
-0.000172961401632498
9.1852930850592e-06
-0.000177014502755303
7.97022992565716e-06
-0.000180433166249929
6.80891189554575e-06
-0.000183240761780372
5.68791878732891e-06
-0.000185456194143409
4.59899791195693e-06
-0.000187095665293052
3.53692359772086e-06
-0.000188174202100976
2.49949368416236e-06
-0.000188706700738739
1.48638587164917e-06
-0.000188708675922063
4.98807897271732e-07
-0.000188196316815146
-4.61630592620026e-07
-0.000187186953046287
-1.39249618901431e-06
-0.000185699860898132
-2.2900508811196e-06
-0.000183756160698452
-3.15055550729221e-06
-0.000181378576854113
-3.97068542421221e-06
-0.000178591340042498
-4.7472913305053e-06
-0.000175420000013865
-5.47757647029017e-06
-0.000171891215437266
-6.15914240866659e-06
-0.00016803251664961
-6.79004983421185e-06
-0.000163872057037599
-7.36884510775367e-06
-0.000159438361289844
-7.89457155632776e-06
-0.00015476007809724
-8.36676493541819e-06
-0.000149865745303247
-8.78543183705006e-06
-0.000144783570240104
-9.15102298525082e-06
-0.000139541231519382
-9.46439238001316e-06
-0.000134165703221616
-9.72675464789501e-06
-0.000128683103797784
-9.93963687368033e-06
-0.00012311857051495
-1.01048285391129e-05
-0.000117496159794817
-1.02243301808217e-05
-0.000111838772696506
-1.03003033894669e-05
-0.000106168104704685
-1.0335022104589e-05
-0.000100504618216093
-1.03308275107514e-05
-9.48675376308266e-05
-1.0290081863311e-05
-8.92748625171793e-05
-1.02151339960357e-05
-8.37434036614741e-05
-1.01082703086088e-05
-7.82888291799111e-05
-9.97170034082358e-06
-7.2925737603022e-05
-9.80749332982999e-06
-6.76677277185364e-05
-9.61760279686455e-06
-6.2527515063108e-05
-9.40374321393921e-06
-5.75170084309918e-05
-9.16752424315331e-06
-5.26474906068122e-05
-8.91015471961036e-06
-4.79296735817139e-05
-8.63284303480265e-06
-4.33739893874865e-05
-8.33608945707579e-06
-3.89905765420059e-05
-8.0206828916469e-06
-3.47897696565669e-05
-7.6860872392593e-06
-3.07819269445651e-05
-7.33273548961806e-06
-2.69782699394749e-05
-6.95850703524687e-06
-2.339041443607e-05
-6.56368890368472e-06
-2.00318113297393e-05
-6.14356827922581e-06
-1.69167090684344e-05
-5.69892220456704e-06
-1.40626378356305e-05
-5.22057321941196e-06
-1.14882718503075e-05
-4.71142716060024e-06
-9.21779746782771e-06
-4.15420696564498e-06
-7.27637724013523e-06
-3.55833053685557e-06
-5.69839774882146e-06
-2.89061918534657e-06
-4.51674419338341e-06
-2.17926768354174e-06
-3.78055798338021e-06
-1.3572944509203e-06
-3.52825517678776e-06
-5.02260462567467e-07
-3.82959055566636e-06
5.29635798873263e-07
-4.71459913814867e-06
1.52935224113055e-06
-6.28247960081498e-06
2.82521180943971e-06
-8.49273063969054e-06
3.84737479221105e-06
-1.14802158432196e-05
5.3723061314424e-06
-1.49981286170803e-05
5.96888570891971e-06
-1.97927454168239e-05
8.86540367930316e-06
-2.17331629900411e-05
3.60095382152709e-06
-2.16577202011384e-05
2.86495892140535e-07
-1.94606240283587e-05
-3.71732935528682e-06
-1.54071349928414e-05
-7.14857212651593e-06
-9.77387986183775e-06
-1.02020369504264e-05
-2.81668077969429e-06
-1.27349983605908e-05
5.29559475430789e-06
-1.4941808115319e-05
1.46682022245223e-05
-1.73706499667966e-05
2.49620348405083e-05
-1.91657891442134e-05
3.57847731022648e-05
-2.01935450585624e-05
4.68659395592501e-05
-2.07073471369741e-05
5.79277584896167e-05
-2.06681995899856e-05
6.86041897001533e-05
-1.99597222687295e-05
7.81063710358631e-05
-1.76790460377383e-05
8.61087270815586e-05
-1.47772363678485e-05
9.30844555274177e-05
-1.28497255220272e-05
9.95081420779041e-05
-1.18470918021509e-05
0.000105830960336749
-1.16426876650627e-05
0.000112808606632781
-1.29401102578692e-05
0.000121680048349161
-1.64466553191213e-05
0.00013500304949033
-2.51290067054393e-05
0.000153322431989461
-3.45551029874593e-05
0.000177207943466923
-4.5092934211677e-05
0.000208383268057739
-5.9142661697816e-05
0.000248991867320296
-7.77218529742484e-05
0.000297442995991267
-9.31506244184871e-05
0.000336694800909324
-7.30074425456179e-05
0.000329001877105116
2.50929358375337e-05
0.000268314156996695
0.000126658226006834
0.000188484687010157
0.000152159191117573
0.000120819726598543
0.000124123541178917
4.53701513577714e-05
0.000134026440950451
2.65466444681924e-05
0.000122921823885754
1.93015401724536e-05
7.96849956262099e-05
0.000100933823606002
1.99619712439174e-05
0.000132016302307379
-2.1968333753634e-05
8.4837520307369e-05
-3.32302195072368e-05
1.75366315604725e-05
-2.76817727062955e-05
-1.56968819727952e-05
-2.21205745675348e-05
-1.30311591327916e-05
-1.92309875458048e-05
-6.52748284322312e-06
-1.75106426473385e-05
-3.92790465889103e-06
-1.60773110052046e-05
-3.34815289882927e-06
-1.49509967920343e-05
-2.6435344498948e-06
-1.43822135034027e-05
-1.36081955625177e-06
-1.43988204145289e-05
-4.34941185031269e-08
-1.50507756908426e-05
1.37375620572911e-06
-1.64766672090393e-05
3.12606213816674e-06
-1.87263703754808e-05
4.98449018810964e-06
-2.17635725104517e-05
6.78676630311628e-06
-2.53372621157128e-05
7.99834632884743e-06
-2.91612870839931e-05
8.54877775809574e-06
-3.30133338305486e-05
8.59289306234131e-06
-3.65964920184891e-05
7.93063050077335e-06
-3.9597175373277e-05
6.50838161329274e-06
-4.17921575224901e-05
4.51794484064975e-06
-4.32322290485808e-05
2.6262250727914e-06
-4.41801811960696e-05
1.40101013040476e-06
-4.46876309573518e-05
2.338233995417e-07
-4.49657316251378e-05
-4.65379048057621e-07
-4.54779161766672e-05
-1.61260710814876e-07
-4.71236148021942e-05
2.16326577431016e-06
-5.11383499014346e-05
6.75312715690019e-06
-6.14786707859121e-05
2.0440161707343e-05
-8.2188394842237e-05
4.73714712468661e-05
-0.000104546627023558
5.17219015918664e-05
-0.000125156854414325
4.84090330267147e-05
-0.000143897995509253
4.46114865756984e-05
-0.00016058318073985
4.02288775036377e-05
-0.000175327618141101
3.59161759595299e-05
-0.000188290325732655
3.18878142931201e-05
-0.000199668169056383
2.82445067885771e-05
-0.000209640263313216
2.49920949503142e-05
-0.000218360007123495
2.20768803179534e-05
-0.000225951100898043
1.94440614742718e-05
-0.000232509900913403
1.70300024503915e-05
-0.000238110742490444
1.47861346621162e-05
-0.000242810379254772
1.26698666899797e-05
-0.000246652954747299
1.06514873880687e-05
-0.000249673546137441
8.70851017746159e-06
-0.000251901440463763
6.82689223827243e-06
-0.000253362443511661
4.9979266456109e-06
-0.00025408082645889
3.21787663138371e-06
-0.000254080674532924
1.48623394566903e-06
-0.000253386675293581
-1.9519134208362e-07
-0.000252023925488374
-1.82438039781528e-06
-0.000250018959031696
-3.39746264569734e-06
-0.000247400537115557
-4.90847279726138e-06
-0.000244199246815033
-6.35184580781347e-06
-0.000240447325754412
-7.72260648483215e-06
-0.000236178517174112
-9.01609991080573e-06
-0.000231427834586466
-1.02282590579391e-05
-0.000226231301907398
-1.13556750877292e-05
-0.000220625668772321
-1.23956829692985e-05
-0.000214648118238379
-1.33463956416792e-05
-0.000208335976225545
-1.42067135691502e-05
-0.000201726430858578
-1.49763103023761e-05
-0.000194856269980961
-1.56555927147011e-05
-0.000187761639526
-1.62456534401817e-05
-0.00018047782891117
-1.67482029948235e-05
-0.000173039083964931
-1.71654995941681e-05
-0.000165478449391395
-1.75002714472194e-05
-0.000157827641221254
-1.77556367092633e-05
-0.000150116949171522
-1.79350222305574e-05
-0.00014237516772825
-1.80420848327444e-05
-0.000134629554802009
-1.80806350308341e-05
-0.00012690581603293
-1.80545662798183e-05
-0.000119228114460962
-1.79677834352547e-05
-0.000111619100833946
-1.78241476230387e-05
-0.000104099969316344
-1.76274018261991e-05
-9.66905256085491e-05
-1.73811440486091e-05
-8.94092844550067e-05
-1.70887344833894e-05
-8.22735673378566e-05
-1.675331991401e-05
-7.52996481423438e-05
-1.63776624094573e-05
-6.85028659135102e-05
-1.59643064719915e-05
-6.18978385542085e-05
-1.55151820788749e-05
-5.54985705772208e-05
-1.50321110118069e-05
-4.93187741472235e-05
-1.45158858870844e-05
-4.33719464277903e-05
-1.39675106111178e-05
-3.76718621160475e-05
-1.33861715510143e-05
-3.22325856734317e-05
-1.27720119322827e-05
-2.70692207267344e-05
-1.21218719819585e-05
-2.21978472951157e-05
-1.14350623352939e-05
-1.76366180159026e-05
-1.07047975584828e-05
-1.3405623422539e-05
-9.92991679790573e-06
-9.52842201522581e-06
-9.09777462671468e-06
-6.03183251558318e-06
-8.20801666022736e-06
-2.9481256637912e-06
-7.23791381741979e-06
-3.14295815422674e-07
-6.19216038525426e-06
1.82427736944937e-06
-5.0291923702207e-06
3.41702668880459e-06
-3.77201700288668e-06
4.40043209435618e-06
-2.34069985647609e-06
4.70957120404844e-06
-8.11399572229833e-07
4.2594490305225e-06
9.79757972404204e-07
2.97651826873862e-06
2.81228300294086e-06
7.52950854340603e-07
5.04877922387068e-06
-2.43807521812281e-06
7.03840086470534e-06
-6.71309781127757e-06
9.64732872459975e-06
-1.19314206397387e-05
1.11872085374059e-05
-1.84358387911299e-05
1.53698218306991e-05
-2.08416724207505e-05
6.0067874511848e-06
-2.02371275291429e-05
-3.18048999454106e-07
-1.68268464784099e-05
-7.12761040600763e-06
-1.10480148520377e-05
-1.29274037528448e-05
-3.32931836816477e-06
-1.79207334342751e-05
6.01289755235993e-06
-2.2077214281119e-05
1.67932812050494e-05
-2.57221917680009e-05
2.9137202588918e-05
-2.97145713506569e-05
4.26221396496297e-05
-3.26507262048887e-05
5.67736890899627e-05
-3.43450944988788e-05
7.12592626819954e-05
-3.51929207289891e-05
8.57374678589707e-05
-3.51464047669427e-05
9.9734417976143e-05
-3.39566723859017e-05
0.000112295715579858
-3.02403436414636e-05
0.000123008047056679
-2.54895678447045e-05
0.00013240145608876
-2.22431345541112e-05
0.000141059015534297
-2.05046512476798e-05
0.000149576854374937
-2.01605265056938e-05
0.000158913753188117
-2.22770090710423e-05
0.00017069830827032
-2.8231210401326e-05
0.000188035829127015
-4.24665275621459e-05
0.000211767445342247
-5.82867192027111e-05
0.000242603468508209
-7.5928957377631e-05
0.000282447689907416
-9.89868830970211e-05
0.000333541026453478
-0.000128815189520309
0.000393837072843996
-0.000153446670809009
0.000444950734884144
-0.000124121104585766
0.000444888885410949
2.51547853107286e-05
0.000380416158533177
0.000191130952884617
0.00028313392380895
0.000249441425841798
0.000193236367941518
0.000214021097046347
8.93906270755164e-05
0.000192988336552378
5.11895422172745e-05
0.000175222834871545
3.70670418532857e-05
0.000120188762625195
0.00015596789585234
4.09868638811172e-05
0.000211218201051455
-2.01857198453212e-05
0.000146010104033803
-4.06798645315374e-05
3.80307762466953e-05
-3.59088814916665e-05
-2.04678650126705e-05
-2.9108655786962e-05
-1.98313848375107e-05
-2.53645698903338e-05
-1.02715687398598e-05
-2.3159781366156e-05
-6.13269318306516e-06
-2.13649629154458e-05
-5.14297134954708e-06
-1.99676775434913e-05
-4.04081982185054e-06
-1.92825812490333e-05
-2.04591585071031e-06
-1.93641996295984e-05
3.81242620720442e-08
-2.02829606293696e-05
2.2925172055122e-06
-2.22109341595588e-05
5.0540356683461e-06
-2.52108081239223e-05
7.98436415248445e-06
-2.92246570001082e-05
1.08006151793106e-05
-3.39353871902278e-05
1.27090765189618e-05
-3.89812175033299e-05
1.35946080712021e-05
-4.407866181775e-05
1.36903373767524e-05
-4.88652039304773e-05
1.27171726134985e-05
-5.29691831354346e-05
1.06123608182539e-05
-5.61427399521309e-05
7.69150165734604e-06
-5.84608914710014e-05
4.94437659164463e-06
-6.02366980951498e-05
3.17681675454529e-06
-6.1561057580102e-05
1.55818288450843e-06
-6.27166652411344e-05
6.90228612966676e-07
-6.4334816470288e-05
1.45689051832054e-06
-6.75913038278662e-05
5.41975313186442e-06
-7.43876327521526e-05
1.35494560811895e-05
-8.92349650897806e-05
3.52874940449759e-05
-0.00011566234889911
7.37988550561986e-05
-0.000143527724549507
7.95872772422875e-05
-0.000168782051506371
7.36633599835826e-05
-0.000191309795292464
6.71392303618074e-05
-0.00021105182857574
5.99709107869234e-05
-0.000228243598089293
5.31079454730892e-05
-0.000243153577327244
4.67977935310855e-05
-0.000256061423614417
4.11523530757438e-05
-0.000267210334209309
3.61410055451979e-05
-0.000276800626063112
3.1667172171764e-05
-0.000284991626369794
2.76350617809452e-05
-0.000291906740372872
2.39451164534648e-05
-0.000297641815250626
2.05212095398766e-05
-0.00030227122769861
1.72992791379593e-05
-0.000305854260551945
1.42345202413902e-05
-0.000308439450673281
1.12937002987988e-05
-0.000310068453653819
8.45589521882624e-06
-0.000310778696247562
5.70816923936169e-06
-0.00031060559852254
3.04477890638263e-06
-0.000309584093286119
4.64728709259354e-07
-0.000307749224834902
-2.03005979332049e-06
-0.000305136802088756
-4.43680314396574e-06
-0.000301784019030492
-6.75024570395058e-06
-0.000297729467689866
-8.96302413789849e-06
-0.000293013119097072
-1.10681944006015e-05
-0.000287676190301617
-1.30595352802756e-05
-0.000281760965262779
-1.49313249496445e-05
-0.000275310545913141
-1.66786784075744e-05
-0.000268368581328123
-1.82976396727428e-05
-0.000260978980741269
-1.97852835561793e-05
-0.000253185626222443
-2.11397501604808e-05
-0.000245032093665356
-2.23602461262427e-05
-0.000236561389203011
-2.34470147647501e-05
-0.000227815708076715
-2.44012738409759e-05
-0.000218836217607557
-2.52251439093342e-05
-0.000209662869316326
-2.59215512860684e-05
-0.000200334239752766
-2.64941291577272e-05
-0.00019088740129025
-2.69471099097256e-05
-0.00018135782273396
-2.72852152655333e-05
-0.000171779299154371
-2.75135458101348e-05
-0.000162183909446982
-2.76374745401306e-05
-0.000152602000282053
-2.76625441957745e-05
-0.000143062194583463
-2.75943719784057e-05
-0.000133591424085971
-2.74385539327486e-05
-0.000124214981900551
-2.72005898084548e-05
-0.000114956599163786
-2.6885784562962e-05
-0.000105838534731098
-2.64992084813076e-05
-9.68816923979609e-05
-2.6045576816524e-05
-8.81057424968863e-05
-2.55292698150685e-05
-7.95292859436012e-05
-2.49541189627268e-05
-7.11699988781022e-05
-2.43235935374793e-05
-6.304486055649e-05
-2.36403204004809e-05
-5.51703138616383e-05
-2.29066577066573e-05
-4.75625848363694e-05
-2.21236149123309e-05
-4.02378629277141e-05
-2.12922325197707e-05
-3.32127443358607e-05
-2.04112901428775e-05
-2.65044592226564e-05
-1.94802970454705e-05
-2.01314619109508e-05
-1.84948692936632e-05
-1.41138027483327e-05
-1.74527214979185e-05
-8.47384167435654e-06
-1.63447586324272e-05
-3.23692855698666e-06
-1.51668299152762e-05
1.56779398684887e-06
-1.39024971705555e-05
5.90619981340423e-06
-1.25464224868004e-05
9.7381001154263e-06
-1.10698141194723e-05
1.30161131413257e-05
-9.47017341114813e-06
1.56835075501284e-05
-7.6965867790131e-06
1.76740026242864e-05
-5.76251207704712e-06
1.89078339059833e-05
-3.57453113818155e-06
1.92963556167303e-05
-1.19992128296511e-06
1.87329133655378e-05
1.54320022361664e-06
1.71055678744165e-05
4.4396284940727e-06
1.4280639502566e-05
7.87370759570114e-06
1.016495412983e-05
1.11540862374443e-05
4.63410325349433e-06
1.51781796009329e-05
-2.28991299622903e-06
1.81112247871195e-05
-1.03231854956058e-05
2.34030943300634e-05
-1.29666457799829e-05
8.65024773555652e-06
-1.16062900312347e-05
-1.67840474822587e-06
-6.88097745333956e-06
-1.18529229838944e-05
5.2920109299863e-07
-2.03375822991873e-05
1.00635525810589e-05
-2.74550849223478e-05
2.13706242040555e-05
-3.33842859041281e-05
3.42856299198009e-05
-3.86371974837267e-05
4.89475735491039e-05
-4.43765149799615e-05
6.48989257542701e-05