/*--------------------------------*- C++ -*----------------------------------*\
| =========                 |                                                 |
| \\      /  F ield         | OpenFOAM: The Open Source CFD Toolbox           |
|  \\    /   O peration     | Version:  3.0.1                                 |
|   \\  /    A nd           | Web:      www.OpenFOAM.org                      |
|    \\/     M anipulation  |                                                 |
\*---------------------------------------------------------------------------*/
FoamFile
{
    version     2.0;
    format      ascii;
    class       volSymmTensorField;
    location    "30000";
    object      R;
}
// * * * * * * * * * * * * * * * * * * * * * * * * * * * * * * * * * * * * * //

dimensions      [0 2 -2 0 0 0 0];

internalField   nonuniform List<symmTensor> 
21000
(
(7.33068213694385e-06 -1.33783972011824e-08 -0 7.33066884103617e-06 -0 7.33069621403298e-06)
(8.2604834208112e-06 -1.55743346623488e-08 -6.66210502375775e-30 8.2611027172657e-06 -5.78527788981899e-32 8.2607681748033e-06)
(5.41506577905419e-06 -8.26848762573194e-09 -1.16908804298488e-30 5.41737925372016e-06 -8.9151971410798e-29 5.41623714347488e-06)
(2.24325296236005e-07 -7.22439681423997e-11 5.97108528295371e-27 2.24361885845966e-07 2.19120101781122e-26 2.24342823917529e-07)
(1.01169539291301e-06 3.72307880173846e-10 4.34707742556712e-26 1.01105041023933e-06 1.24561149002554e-25 1.01136880032158e-06)
(1.77111699436484e-06 7.64372759130928e-10 -1.10236478995275e-26 1.76899974533641e-06 -1.7114462719508e-28 1.77005181936105e-06)
(9.79535154366124e-07 2.36449654311777e-10 1.81854473550642e-25 9.78548460282163e-07 2.9176265660701e-25 9.79039803893333e-07)
(5.13187376329501e-07 6.56613522308974e-11 6.9112988063454e-27 5.12789469204038e-07 -1.92685488268237e-29 5.12987837786765e-07)
(3.54107278485861e-07 2.82765860222951e-11 4.89804583584278e-26 3.53869999298267e-07 6.62165519927808e-26 3.53988306883179e-07)
(2.70657758538421e-07 1.54032022652311e-11 8.27492203037746e-26 2.7049304357089e-07 1.04927773562934e-25 2.70575195382677e-07)
(2.0817036311344e-07 9.59930749073409e-12 -4.0443505429991e-27 2.08054529373248e-07 1.4394055118577e-28 2.08112309166044e-07)
(1.55144560134914e-07 6.58675371078571e-12 -1.57459680542072e-26 1.55066398147255e-07 -1.7593367854881e-26 1.55105409960097e-07)
(1.22904575447292e-07 5.42605960121402e-12 -3.05800429663386e-26 1.2284671455404e-07 -4.63551947301743e-26 1.2287561333093e-07)
(1.06376870586049e-07 5.0261037199488e-12 5.74309284764516e-26 1.06328132991083e-07 7.36818389342815e-26 1.06352492361568e-07)
(1.00681968168331e-07 5.18697040720513e-12 9.15693981434049e-27 1.00635176784423e-07 1.53298645165038e-26 1.00658577779408e-07)
(1.06248471687082e-07 6.15398070611493e-12 4.44033786386081e-26 1.06195775684783e-07 5.22217048876716e-26 1.06222145436833e-07)
(1.24517281645726e-07 8.3962749785285e-12 -5.6028296056794e-26 1.244481036379e-07 -6.60430771631637e-26 1.2448272972572e-07)
(1.57529324777732e-07 1.26605826214605e-11 -4.09302419322622e-26 1.5742785347828e-07 -6.09414093046264e-26 1.57478648918826e-07)
(2.0652258645996e-07 1.99497462842593e-11 7.32462806723516e-26 2.06366106667911e-07 8.38735344279514e-26 2.06444420983044e-07)
(2.64690301143091e-07 3.09357002127934e-11 -1.10138409111758e-26 2.64457273215685e-07 1.13453679518538e-27 2.64573866583729e-07)
(3.2705606433482e-07 4.73405441914542e-11 1.67241093125487e-26 3.26727871344609e-07 -9.98612443581691e-28 3.26892037985431e-07)
(3.85497249704196e-07 6.99903955087943e-11 -6.71053880327981e-26 3.8506752345365e-07 -9.75553802547573e-26 3.85282430391753e-07)
(4.28380934338658e-07 9.74402205711775e-11 -2.36898272810048e-26 4.27867870793673e-07 2.91747393425557e-27 4.28124421802913e-07)
(4.45625617586691e-07 1.25381310579073e-10 -2.30727242959524e-28 4.45074671050419e-07 -2.65051525703194e-28 4.45350168832833e-07)
(4.33055335579327e-07 1.47486786487252e-10 -2.76203196792881e-25 4.3252739911452e-07 -4.41480133603787e-25 4.32791441518465e-07)
(4.04808177368675e-07 1.63298594870123e-10 -2.1941277305899e-25 4.04340535302013e-07 -3.85076070636168e-25 4.0457454150184e-07)
(3.70144876331779e-07 1.71297858505084e-10 -5.74079935101176e-26 3.69754882940618e-07 -1.60835934895111e-25 3.69950128985098e-07)
(3.27933866256453e-07 1.67636412298773e-10 -9.81012656499388e-24 3.27634143678038e-07 -2.5592231218133e-23 3.27784298329917e-07)
(2.90233043594562e-07 1.60016436098004e-10 1.24207452990478e-25 2.90014157468275e-07 3.99170554883366e-25 2.90123931918224e-07)
(2.56190397106899e-07 1.48877587148311e-10 6.00507722824059e-24 2.56041522142837e-07 2.53811214073214e-23 2.56116214732696e-07)
(2.59106866042635e-07 1.64717151578665e-10 3.52122226759732e-27 2.58998101854445e-07 -5.71361080630136e-28 2.59052935093158e-07)
(2.45724194338154e-07 1.64707912915281e-10 -1.9886562318429e-24 2.45664152025151e-07 1.98869743466858e-25 2.45694076396357e-07)
(4.78636621124304e-07 4.49607496495597e-10 -3.9701446754895e-24 4.7857806302634e-07 1.95706628632256e-23 4.78608735973126e-07)
(1.13645745347396e-06 1.5884236214213e-09 8.26802208187511e-24 1.13635439424146e-06 4.02868227182832e-23 1.13640715016248e-06)
(1.92254093605297e-06 3.44443231673432e-09 1.57606735943491e-23 1.92237350532222e-06 -1.23217888865803e-24 1.92246152078935e-06)
(2.95176890720617e-06 6.4652537103396e-09 -2.27073424370209e-29 2.95152192055739e-06 -3.28945840112933e-27 2.95165089536006e-06)
(4.0726952264022e-06 1.03782199827516e-08 4.85466238027819e-28 4.07237811577899e-06 4.50790703709815e-27 4.07254563290738e-06)
(5.28709805781366e-06 1.52254113092344e-08 -5.65982850358165e-28 5.28671898264746e-06 4.84025401837891e-29 5.2869197777176e-06)
(6.51505882518976e-06 2.06899881897838e-08 -1.40801985989207e-27 6.51463264771984e-06 1.06687022539772e-28 6.51486039821724e-06)
(7.74449138798029e-06 2.6662911303056e-08 -2.13722478639157e-28 7.74403018009814e-06 -5.00650250690791e-27 7.74427820689337e-06)
(8.94173173559375e-06 3.29177777434431e-08 2.90557607281013e-27 8.94124743685932e-06 -1.43294272643903e-26 8.94151014825313e-06)
(1.00990089790505e-05 3.93390567471479e-08 1.54860589710447e-28 1.00985114300609e-05 2.72531140262328e-26 1.00987835116776e-05)
(1.12023629880377e-05 4.57782368141063e-08 -2.4443905881905e-27 1.12018612225901e-05 -1.75245064760199e-26 1.12021381468698e-05)
(1.22464280178463e-05 5.21344948741881e-08 -2.18005744307013e-28 1.22459301752979e-05 -1.37703283957995e-26 1.22462075269346e-05)
(1.32235562650002e-05 5.82972139730492e-08 4.34506375129978e-27 1.32230701043362e-05 -2.86474592254689e-28 1.32233437727473e-05)
(1.41286716200507e-05 6.41745306302607e-08 1.15830379901903e-22 1.4128204567942e-05 -6.01572270557017e-24 1.41284704542277e-05)
(1.49558417436547e-05 6.9673166087515e-08 1.64317625130557e-22 1.49554009646339e-05 -5.30270484275803e-22 1.4955655119066e-05)
(1.57000688952687e-05 7.47099483961023e-08 -8.55131582372097e-23 1.56996612024369e-05 -5.11424188306879e-22 1.56998997768706e-05)
(1.63563628560697e-05 7.92064140640901e-08 -1.35879041034445e-22 1.63559945796195e-05 6.48458201022878e-24 1.63562139639844e-05)
(1.69205255054737e-05 8.30946514848941e-08 3.41982681334021e-27 1.69202023222151e-05 -1.95641766968096e-26 1.69203992055404e-05)
(1.73889971571815e-05 8.63169937688203e-08 1.31343544402394e-27 1.73887239193974e-05 1.7971693112024e-21 1.73888954096757e-05)
(1.77592198119119e-05 8.88291948025323e-08 -1.4915658423274e-22 1.77590003956753e-05 1.86401223585047e-21 1.77591440954004e-05)
(1.80296502788593e-05 9.06010666619587e-08 -2.05367485442073e-22 1.80294874541085e-05 6.4069182178015e-22 1.80296015458098e-05)
(1.81999071842188e-05 9.16178372799962e-08 9.99136821738801e-23 1.81998025321479e-05 6.10181133289486e-22 1.81998858288237e-05)
(1.82706715015169e-05 9.18795593105072e-08 1.55266520095444e-22 1.82706253750315e-05 -5.40020158099594e-24 1.82706773510469e-05)
(1.82437126158832e-05 9.1401199738054e-08 1.0354273440738e-27 1.82437241198025e-05 -3.3788065159245e-29 1.82437449268352e-05)
(1.81226035425033e-05 9.02158347226586e-08 1.52186125574645e-38 1.81226705799906e-05 -4.30398597163235e-40 1.81226610356621e-05)
(1.79118117459006e-05 8.83688575807503e-08 -1.01567345428375e-38 1.79119311371603e-05 -6.12620902697158e-38 1.79118926664297e-05)
(1.76168554733929e-05 8.59175011967328e-08 -1.96159818045456e-38 1.76170230929216e-05 6.144782993333e-38 1.76169576604289e-05)
(1.72441602746014e-05 8.29285887793583e-08 1.45529491948531e-38 1.72443712202086e-05 -3.48254015327643e-40 1.7244281244098e-05)
(1.68009014733562e-05 7.94760989793784e-08 4.958131365472e-28 1.68011502511174e-05 -1.42186845955285e-26 1.68010385069426e-05)
(1.62948352233995e-05 7.5638643716344e-08 -4.02894318350133e-28 1.62951159416355e-05 2.56784134629507e-26 1.62949854596006e-05)
(1.57341213663613e-05 7.14969541427705e-08 -7.07056769856932e-29 1.57344279284227e-05 -1.14734084625988e-26 1.57342818898754e-05)
(1.51271484344039e-05 6.7131510140514e-08 6.48039892381504e-29 1.51274747219142e-05 4.63190407731306e-27 1.51273163595189e-05)
(1.44823640837508e-05 6.26203867925395e-08 1.30022220916429e-22 1.44827041232845e-05 -1.41873189400232e-24 1.44825366289126e-05)
(1.38081178157369e-05 5.80373995805608e-08 3.97340545488598e-23 1.38084659232972e-05 -5.2541507044701e-22 1.38082923669211e-05)
(1.31125189421039e-05 5.34505873509959e-08 -2.29459724375751e-22 1.31128698421676e-05 -1.83359664315636e-23 1.31126931036825e-05)
(1.2403312942707e-05 4.89210577983267e-08 -3.24836269887482e-23 1.240366185969e-05 4.5390159969422e-22 1.24034845751526e-05)
(1.16877783860914e-05 4.45021991151731e-08 1.00959774153204e-22 1.16881211082724e-05 -4.38355779685897e-25 1.16879456307145e-05)
(1.09726445895033e-05 4.02392376835801e-08 -8.34756762717351e-29 1.09729775065273e-05 1.81598551646972e-31 1.09728058810032e-05)
(1.02640303808651e-05 3.61691139104303e-08 7.95481665085582e-29 1.02643504971007e-05 1.73054385053454e-31 1.02641844489006e-05)
(9.56740295595779e-06 3.23206343148735e-08 -6.58038789632446e-29 9.56770788274563e-06 7.61400365083996e-28 9.56754881730898e-06)
(8.8875554452326e-06 2.87148530941245e-08 -7.66694388244002e-29 8.88784337556531e-06 -7.08274411143514e-28 8.88769238827489e-06)
(8.22860141079697e-06 2.53656338785776e-08 6.38073827441415e-29 8.22887108018033e-06 4.16432503575749e-31 8.2287289741223e-06)
(7.59398363320887e-06 2.22803403444266e-08 -0 7.59423427036327e-06 -0 7.59410158005706e-06)
(6.98649599603437e-06 1.9460614569675e-08 -0 6.98672726689782e-06 -3.24684411639933e-27 6.98660428625461e-06)
(6.40831413231397e-06 1.69031927716138e-08 -0 6.40852608053067e-06 2.98514150341529e-27 6.40841289310179e-06)
(5.86103601950345e-06 1.46007375109417e-08 -0 5.86122900590073e-06 -0 5.86112551637872e-06)
(5.34572486446618e-06 1.25426342655624e-08 -0 5.34589950804623e-06 5.05672321475755e-27 5.34580547304625e-06)
(4.86296138534489e-06 1.07157649391091e-08 -0 4.86311850708588e-06 -4.61067439167952e-27 4.86303356534928e-06)
(4.41288868228628e-06 9.10518527685971e-09 -0 4.41302925361768e-06 -4.22103334687466e-27 4.41295295315936e-06)
(3.99527366787456e-06 7.69478543156664e-09 -0 3.99539876367328e-06 3.83015163379764e-27 3.99533058809195e-06)
(3.60954279266688e-06 6.46778784748964e-09 -0 3.609653550965e-06 3.48946076819981e-27 3.6095929403235e-06)
(3.25485579066906e-06 5.4072896783119e-09 -0 3.25495337651169e-06 -3.15335910563003e-27 3.25489974913361e-06)
(2.93011707190254e-06 4.49654401958203e-09 2.87508345297643e-23 2.93020264944249e-06 9.38197234247558e-25 2.93015541500277e-06)
(2.63407613950372e-06 3.71942687382273e-09 5.38345106196319e-23 2.63415084608975e-06 -1.17271625054913e-22 2.63410942397262e-06)
(2.36528725082701e-06 3.06046153121853e-09 3.51185533720653e-24 2.36535218095627e-06 -2.19525934419181e-22 2.36531600442819e-06)
(2.12227307024934e-06 2.50530612953619e-09 -4.02006389316733e-23 2.12232925784551e-06 -1.02844080911573e-22 2.12229779160395e-06)
(1.9033767280254e-06 2.04044474995044e-09 -1.8661422382389e-23 1.90342514097675e-06 -7.30742316449749e-25 1.90339787474451e-06)
(1.70706831970022e-06 1.65386082131691e-09 2.19077115887366e-28 1.70710984776562e-06 -5.71688671011818e-27 1.70708631728827e-06)
(1.53157237688547e-06 1.33423896137802e-09 4.13710540115469e-28 1.53160783476997e-06 -9.68000536102052e-28 1.5315876018911e-06)
(1.3754890236439e-06 1.07210691420307e-09 -3.60957197043009e-28 1.37551914206673e-06 4.63019219920613e-27 1.37550182582596e-06)
(1.23695002018082e-06 8.58238376211884e-10 -1.69230007585843e-28 1.23697545571751e-06 -1.70219286432558e-27 1.23696069258177e-06)
(1.11490867572217e-06 6.85738671080249e-10 1.48656090731942e-28 1.11493000276377e-06 7.43811652892855e-30 1.11491749873028e-06)
(1.00732100165724e-06 5.47081477050951e-10 -1.35630780109339e-28 1.00733872710789e-06 -7.3765060422022e-30 1.00732818592339e-06)
(9.1382828723518e-07 4.37956430224368e-10 2.4425267843178e-28 9.13842841596344e-07 -1.2500703140541e-27 9.13834056945916e-07)
(8.31925673069589e-07 3.51888692532943e-10 3.45254014635728e-30 8.31937429417635e-07 2.30413917216099e-27 8.31930156063095e-07)
(7.62548426689908e-07 2.87345933307055e-10 -1.03864018457169e-28 7.62557684897523e-07 -1.06321826242654e-27 7.62551810034029e-07)
(7.02044398546721e-07 2.37913322453329e-10 8.70144644971395e-31 7.02051419073339e-07 9.77510888211008e-28 7.0204671989152e-07)
(6.53854646435996e-07 2.05567088760672e-10 -8.24397178262313e-31 6.53859602250907e-07 -9.10519180928712e-28 6.53856082796018e-07)
(6.11628687666824e-07 1.82279778140216e-10 -8.2731121425381e-29 6.11631753085392e-07 8.49621200316579e-28 6.11629160938672e-07)
(5.84156440293058e-07 1.75746252736796e-10 7.79777126372825e-29 5.8415762666696e-07 -1.62996902701538e-27 5.84156155373745e-07)
(5.58777568257538e-07 1.72862177513979e-10 7.79383462202853e-29 5.58777040873937e-07 1.57279980791051e-27 5.58776282870055e-07)
(5.55400135036355e-07 1.92787996016127e-10 -1.52697597797063e-28 5.55397607964884e-07 -7.90651639657277e-28 5.55398140724772e-07)
(5.46257040845953e-07 2.08635834259478e-10 1.49725589140282e-28 5.46252941063591e-07 1.12378969562535e-29 5.46253864853149e-07)
(5.766283928819e-07 2.66865806637784e-10 1.57294331363589e-30 5.76621838985054e-07 8.14087243299768e-28 5.76624579663557e-07)
(5.77953924558609e-07 2.98791859022851e-10 -1.58780102846258e-28 5.7794683996932e-07 -2.42434586082375e-27 5.7794889664973e-07)
(6.51676467224334e-07 4.19956199803418e-10 -1.42123123132752e-28 6.51680493708214e-07 2.35773906065287e-26 6.51678277077381e-07)
(7.87641169700306e-07 5.86761348755732e-10 2.74889793702779e-26 7.8782570024787e-07 4.58806163188862e-27 7.87732572508803e-07)
(8.5454753981071e-07 6.2516648119867e-10 -4.88672818966537e-26 8.54952598900628e-07 3.01542086282985e-25 8.54751331605182e-07)
(9.29130863608006e-07 6.34239056232297e-10 -1.90921477319843e-25 9.29768751253729e-07 9.37845091722912e-25 9.29451615076904e-07)
(9.10171726317458e-07 5.08115878123789e-10 8.73177573425613e-26 9.10883241894002e-07 -2.77620370065946e-25 9.1053072491362e-07)
(8.53271873291137e-07 3.53174173757413e-10 2.86921923165568e-25 8.5392738539848e-07 -7.53198881643747e-25 8.53603276872862e-07)
(7.37311449470265e-07 1.85609458027475e-10 -4.16984686256701e-25 7.37762293239438e-07 1.00576443156587e-24 7.37540520426437e-07)
(6.05104488833098e-07 6.18911501670787e-11 -1.30040226872345e-25 6.05312535050265e-07 3.02440203107625e-25 6.05211637154743e-07)
(4.65718500529793e-07 -1.50873376661409e-11 1.00933605774528e-26 4.65698231731758e-07 -2.11616989888475e-25 4.65710604002865e-07)
(6.10827606067687e-07 -8.86516858709403e-11 5.85131782457996e-25 6.10500503593766e-07 -9.8807825270292e-25 6.10666407319517e-07)
(1.02399641133102e-06 -2.39960165451888e-10 8.61856124603044e-26 1.02287940481241e-06 9.00019351013951e-27 1.02344047639994e-06)
(1.68126124133668e-06 -5.14693052466739e-10 8.15801839083039e-25 1.67843207027835e-06 -1.12411148976313e-24 1.67984793011832e-06)
(2.64391833229235e-06 -9.70161496064486e-10 1.69583680723558e-25 2.63787764290893e-06 1.91039239079592e-26 2.64089517635664e-06)
(3.9631667346869e-06 -1.68478730678495e-09 2.21052203008978e-25 3.95174276400938e-06 1.33873643217894e-26 3.9574425851166e-06)
(5.57883770381832e-06 -2.69921967903778e-09 1.04966252495524e-24 5.55965494805468e-06 -1.3830888037913e-24 5.56922028382442e-06)
(7.3059648163893e-06 -3.88962895929853e-09 -4.47331523211484e-24 7.27743948277161e-06 5.29613179021742e-24 7.29165968098029e-06)
(9.12318030084527e-06 -5.13021053577356e-09 -2.74845940026695e-27 9.08401793860416e-06 2.9820897656096e-27 9.10353700920017e-06)
(1.12040518037264e-05 -6.47680604753052e-09 2.69625080772498e-27 1.11519429908226e-05 -3.41953940625087e-27 1.11779079596098e-05)
(1.35979833682324e-05 -7.87428196474881e-09 -6.22327525363102e-24 1.35302042067828e-05 7.77106012172123e-24 1.35639716606384e-05)
(1.66892629365815e-05 -9.53073874212917e-09 -7.06387784853422e-24 1.66000774460097e-05 8.65821266332323e-24 1.66444903670312e-05)
(2.07725026526696e-05 -1.15077937329868e-08 8.23748227660052e-24 2.06532579363975e-05 -9.9750483468037e-24 2.07126213741355e-05)
(2.74755265524131e-05 -1.50817508473881e-08 -7.31113615640654e-24 2.73020497329773e-05 7.80661261914909e-24 2.73883330398343e-05)
(3.88192283170348e-05 -2.39330363382492e-08 7.70043048203766e-24 3.85410326617203e-05 -1.00011399586306e-23 3.86792897086255e-05)
(5.6198682941703e-05 -4.51687532477982e-08 1.10467500660032e-24 5.57344211527263e-05 2.23924106168571e-26 5.59649920884031e-05)
(8.26626291575082e-05 -9.74650830557065e-08 -1.85616478889349e-23 8.18674627980155e-05 2.85222714851728e-23 8.22621575348903e-05)
(0.000124242719547939 -2.33112944600434e-07 -1.6472763865679e-24 0.00012283918805206 9.18838152919877e-27 0.000123535468403633)
(0.000187251811768248 -5.8631215810901e-07 2.74087268894941e-23 0.000184794659217575 -3.93086995098907e-23 0.000186013187042459)
(0.000264045849310307 -1.368075978641e-06 -1.29984427742829e-23 0.000260303039086876 1.22500898648438e-23 0.000262159198693869)
(0.000274965097459236 -2.02037802125805e-06 -4.28521710178959e-24 0.000271723566342926 6.98492161545262e-26 0.000273334352153888)
(0.000165889806033453 -1.19912463602474e-06 2.01951269480121e-24 0.000164864075551842 4.28449368054331e-24 0.000165375831613089)
(6.94039800881795e-05 -3.69076930646233e-07 2.69507367292477e-26 6.92610133158874e-05 2.05464966863191e-24 6.9332456196957e-05)
(2.00213142002399e-05 -6.22168018516107e-08 -2.9134734014863e-26 2.00148511625254e-05 3.19097267823688e-28 2.00182064850749e-05)
(7.66731779209559e-06 -1.50839972981005e-08 2.76289468905094e-30 7.66692585069497e-06 -1.20211706282175e-32 7.66710003765684e-06)
(1.25804561358251e-05 -1.57322224699973e-07 -0 1.25783784929679e-05 -0 1.257971649315e-05)
(1.26432637078585e-05 -1.54868990976651e-07 -9.21894769110547e-30 1.2647128769993e-05 -8.68122628395272e-28 1.26449122633391e-05)
(8.73848419034283e-06 -8.88484753153191e-08 2.58673460071321e-25 8.75620696752116e-06 3.48513878821663e-27 8.7475296738638e-06)
(3.62800210101532e-06 -1.44366812904484e-08 -3.85681896738429e-27 3.63292986619449e-06 6.40879988456096e-26 3.63050224612866e-06)
(1.09073292997374e-06 8.53836171196669e-10 -2.95446278980688e-25 1.08800083234825e-06 -7.55807964003513e-25 1.08939506964349e-06)
(3.87664263815682e-07 7.83406301027806e-10 -1.4196755437823e-25 3.85390350797049e-07 -3.6403893750557e-25 3.86535072993879e-07)
(1.74674139734535e-07 2.33043122571317e-10 -1.82015877132093e-25 1.73750851027142e-07 -2.92065841054072e-25 1.74214548888639e-07)
(1.04566426453071e-07 7.80149795529118e-11 -1.16721563193593e-26 1.04127148915314e-07 -6.79445007933864e-29 1.04347566589115e-07)
(7.43570414170718e-08 3.45847430521799e-11 -4.27663221842133e-26 7.40841269358434e-08 -7.97703789077902e-26 7.42209797178767e-08)
(5.57875150978259e-08 1.86537585588482e-11 -2.05712390054171e-26 5.56002567987446e-08 -2.85976273390513e-26 5.56941456518601e-08)
(4.47728603058879e-08 1.23934836112102e-11 -5.64338125598629e-27 4.46344846896697e-08 4.57923811097002e-29 4.47038336110051e-08)
(3.67279091636887e-08 9.50399724721693e-12 1.42979627998119e-26 3.66240172986847e-08 2.36210350225649e-26 3.66760553328439e-08)
(3.26673111670119e-08 8.72228997375635e-12 -1.80995839860944e-27 3.25800520574403e-08 -1.77715512377102e-27 3.2623727484069e-08)
(3.20443986191643e-08 9.04872682663109e-12 -2.42979090366774e-26 3.19602731950712e-08 -4.87028792136718e-26 3.20023521585748e-08)
(3.42881294361942e-08 1.04221347719335e-11 1.22249870435097e-25 3.41959320663404e-08 1.51204616773837e-25 3.42420143616191e-08)
(3.99814367180468e-08 1.34260763968485e-11 -1.07669864576615e-25 3.98658716847613e-08 -1.09995900071016e-25 3.99236082724345e-08)
(5.02263350425523e-08 1.92723690734536e-11 1.00745499874598e-25 5.0063179741783e-08 1.51761247571282e-25 5.01446630099622e-08)
(6.64009655641402e-08 2.98734314465254e-11 -3.71225534141624e-26 6.61511821360511e-08 -7.75398194791616e-26 6.62759357458743e-08)
(8.98721360654212e-08 4.81390734933881e-11 -1.58797332727132e-25 8.94765353354366e-08 -2.06886076071923e-25 8.96741574402002e-08)
(1.20514164137962e-07 7.80940482832605e-11 1.76121466905619e-28 1.19901011494531e-07 1.60043182307628e-28 1.20207394638539e-07)
(1.58327482789586e-07 1.27690782757771e-10 4.03182929063326e-25 1.57413678174275e-07 6.44343150630605e-25 1.57870422401299e-07)
(2.02518395572464e-07 2.06672203103896e-10 -4.45640307617674e-25 2.01224769961267e-07 -6.06571924693565e-25 2.01871504789791e-07)
(2.50415508554479e-07 3.23975143173994e-10 9.46116102911174e-25 2.48699625393623e-07 1.18906526576433e-24 2.49557576473396e-07)
(2.98146997522782e-07 4.83950441747362e-10 -1.76049880874448e-25 2.96034304625774e-07 1.8685598826809e-26 2.97090647319475e-07)
(3.41912207172252e-07 6.82774985558372e-10 9.94945472284533e-25 3.39505189162837e-07 1.95692743873953e-24 3.40708275696072e-07)
(3.8155504596325e-07 9.16895905460403e-10 1.30138682518938e-24 3.78979896163716e-07 2.01268604534171e-24 3.80266601728384e-07)
(4.17057371996756e-07 1.16998956042237e-09 -1.36564671254025e-22 4.1445326713821e-07 -2.59248789056217e-22 4.15753732177294e-07)
(4.44644519888781e-07 1.40957407934708e-09 -4.85355339158149e-23 4.42185759370559e-07 -1.22100975488149e-22 4.43412761388392e-07)
(4.65473226244469e-07 1.63193956918069e-09 4.52592649096157e-23 4.63293350521923e-07 -1.70296720928149e-23 4.64380750295132e-07)
(4.83307989458568e-07 1.8467176837668e-09 -5.96390201252261e-23 4.8148483581903e-07 -2.60882393553584e-22 4.82392360109875e-07)
(5.14488013200691e-07 2.19141227614057e-09 -3.05890326696066e-23 5.13022739612966e-07 3.88299230296325e-24 5.13755376897937e-07)
(5.72675121656731e-07 2.74293498113457e-09 4.10502241332334e-23 5.71505115398703e-07 -3.85514265813804e-24 5.72080255291765e-07)
(7.58312371735202e-07 4.84117793021486e-09 5.94335182634447e-23 7.57140086836318e-07 3.64638534679512e-22 7.5773073532236e-07)
(1.18481285850394e-06 1.03509622269327e-08 -7.94189820973598e-23 1.18312215667046e-06 5.90531652824094e-22 1.18395200616127e-06)
(1.71725168345267e-06 1.85597574676338e-08 -1.19897246426888e-22 1.71495412774496e-06 -1.49001873234686e-21 1.71609486121317e-06)
(2.33854908763826e-06 2.99329134734068e-08 -5.98207467297082e-36 2.33560460082712e-06 -2.05724931175469e-21 2.33705324028287e-06)
(3.02303601209416e-06 4.40299042072734e-08 -3.9314008975647e-41 3.01957548233441e-06 -4.5691747226797e-26 3.02127934674338e-06)
(3.75864078922256e-06 6.07257148881303e-08 -2.51929236205683e-38 3.75475750944292e-06 6.62190285521991e-26 3.75665894300418e-06)
(4.52690886847366e-06 7.94793051136853e-08 4.16699526847477e-27 4.52273166693049e-06 -2.6335673921279e-28 4.52477161570589e-06)
(5.3207786974975e-06 1.0002222782965e-07 -3.65158332896992e-27 5.31640102673287e-06 -2.46456428588071e-26 5.31852794684111e-06)
(6.13223926624054e-06 1.21975455581248e-07 -1.42929575813629e-27 6.12775213113428e-06 -1.72481018812182e-27 6.12992264838895e-06)
(6.95818721210347e-06 1.4510807860107e-07 1.80590246867432e-27 6.95366330616439e-06 1.878691731897e-26 6.95583921967594e-06)
(7.7951020690255e-06 1.69155011682088e-07 -9.18497396980774e-27 7.79061157030287e-06 -6.95652765397447e-26 7.79275879510903e-06)
(8.6409251548036e-06 1.93904332183467e-07 7.92759963601193e-27 8.63653368048455e-06 1.29018483779476e-25 8.63861901237385e-06)
(9.49304502666837e-06 2.19119993398369e-07 -0 9.48881995012885e-06 1.87624232985913e-28 9.49081054813558e-06)
(1.03489811728218e-05 2.4457309636699e-07 -7.18045598071541e-22 1.03449911869794e-05 3.73588622604115e-23 1.03468531780822e-05)
(1.12057218832328e-05 2.70014159199779e-07 -9.41925336745359e-22 1.12020384548365e-05 -5.49688413916835e-21 1.12037372053337e-05)
(1.20600507364802e-05 2.9518806233001e-07 6.52512729540849e-22 1.20567469721477e-05 -6.07429359447674e-21 1.20582470433525e-05)
(1.29084122702595e-05 3.19828476255421e-07 8.89052247425946e-22 1.29055620795171e-05 -4.25809291761828e-23 1.29068280082016e-05)
(1.37471421294128e-05 3.43668978190232e-07 8.27168339381023e-22 1.37448184338406e-05 -3.57806346118818e-23 1.37458153823054e-05)
(1.45725180714087e-05 3.66446511786123e-07 1.27202175900209e-21 1.45707911271168e-05 -8.09954781244716e-21 1.45714858337168e-05)
(1.53808687565339e-05 3.87909134104482e-07 5.72948170456659e-22 1.53798042677662e-05 -8.4700389272584e-21 1.53801658727935e-05)
(1.61684462801244e-05 4.07816325924458e-07 4.20342076262724e-22 1.61681037077523e-05 8.18544521545594e-21 1.61681046206845e-05)
(1.6931055227289e-05 4.25932875588984e-07 -9.23602393245416e-22 1.69314865157777e-05 8.71729166019878e-21 1.69311029533532e-05)
(1.76638363296497e-05 4.42005020386199e-07 -1.24676533351823e-21 1.76650843598904e-05 4.34572995008829e-23 1.76642971163264e-05)
(1.83611796317912e-05 4.55812033183081e-07 -8.72076479695559e-27 1.83632759923722e-05 2.84575997416789e-28 1.83620715030743e-05)
(1.90196576488581e-05 4.67225095354131e-07 -1.33778680593892e-37 1.90226217981038e-05 3.78340379186618e-39 1.90209924749251e-05)
(1.96360379017208e-05 4.76134783824453e-07 1.08306196681968e-37 1.96398769688707e-05 -8.95837121511444e-26 1.96378212622683e-05)
(2.0207547120721e-05 4.82472480392991e-07 1.73012715859587e-37 2.02122557506144e-05 9.22914901100887e-26 2.0209778182201e-05)
(2.07318770936873e-05 4.86210042964987e-07 -1.02214691507656e-26 2.07374377226156e-05 2.22364654652997e-28 2.07345487086558e-05)
(2.12072069115659e-05 4.87359063180416e-07 1.25508491101856e-26 2.12135903533043e-05 9.50695168590567e-26 2.12103058825452e-05)
(2.1632210758084e-05 4.85968991147685e-07 1.01253039279719e-26 2.16393770915691e-05 -8.22488638678683e-26 2.16357182583339e-05)
(2.20060534190482e-05 4.82124278726835e-07 -1.79412906033981e-26 2.20139531215172e-05 -1.54238102972893e-26 2.2009945545942e-05)
(2.23283756917441e-05 4.75940769195238e-07 5.54732483190446e-27 2.23369509600199e-05 -3.85668367374479e-26 2.23326241220701e-05)
(2.25992702576744e-05 4.67561490221263e-07 -1.71717767193567e-21 2.26084564591351e-05 1.86632714894421e-23 2.26038429758619e-05)
(2.28192497881899e-05 4.5715206825009e-07 -3.94368704830484e-22 2.28289769778308e-05 -1.23728350635388e-20 2.28241118551511e-05)
(2.29892090803536e-05 4.44895954022062e-07 3.41363459369098e-21 2.2999403532518e-05 -6.55927166228586e-22 2.29943234154268e-05)
(2.3110382238689e-05 4.30989628312062e-07 3.64878436170931e-22 2.31209679379093e-05 1.20582150386442e-20 2.31157103867131e-05)
(2.31842972580449e-05 4.15637964272523e-07 -1.69523774082366e-21 2.31951973092025e-05 7.35852725092533e-24 2.31898001195854e-05)
(2.32127287411814e-05 3.99049857745879e-07 1.74921546105985e-37 2.32238666638054e-05 7.1723074388176e-27 2.3218367247677e-05)
(2.31976503947846e-05 3.81434240420795e-07 1.78231177862717e-37 2.32089512752474e-05 7.25460662797849e-27 2.32033861138876e-05)
(2.31411883934176e-05 3.62996547293303e-07 2.4732422242336e-38 2.31525798779682e-05 -1.76371105839959e-26 2.31469840552391e-05)
(2.30455766453426e-05 3.43935687463958e-07 -1.77079339896735e-37 2.30569897651811e-05 1.03368632425615e-26 2.3051396583889e-05)
(2.29131145816383e-05 3.24441536986714e-07 -0 2.29244844093156e-05 -2.93355427972244e-26 2.29189250909097e-05)
(2.27461279677142e-05 3.04692950200068e-07 -6.16881930042454e-27 2.27573941078604e-05 8.78577851025e-26 2.27518975720938e-05)
(2.25469330766142e-05 2.84856279153662e-07 5.1602937831363e-27 2.25580400009806e-05 -1.56683948096415e-27 2.25526327226267e-05)
(2.23178046483164e-05 2.65084355156444e-07 7.01216696434636e-27 2.23287018874496e-05 2.1400246235695e-27 2.23234078187607e-05)
(2.20609469125704e-05 2.45515912447627e-07 6.18145261558414e-27 2.20715891172996e-05 -5.78944341481573e-26 2.20664296782754e-05)
(2.17784696788311e-05 2.26275373361461e-07 -1.04854607214561e-26 2.17888165719137e-05 3.42951630783963e-27 2.17838106827235e-05)
(2.14723649772765e-05 2.07472991274853e-07 -2.53844851275785e-26 2.14823812089407e-05 -4.11516057888309e-27 2.1477545384386e-05)
(2.11444907501683e-05 1.89205192667968e-07 2.22017670092707e-26 2.11541456750895e-05 1.1097553109242e-25 2.11494941267724e-05)
(2.07965496948047e-05 1.71555288273591e-07 2.46500697502844e-26 2.08058170808696e-05 4.48427269422486e-27 2.08013618993519e-05)
(2.04300842973678e-05 1.54594097979391e-07 -2.18748192311845e-26 2.0438941996642e-05 -1.08479015196593e-25 2.04346932703141e-05)
(2.00464475821589e-05 1.38381158318487e-07 -1.23967012913371e-26 2.0054877142494e-05 -3.77468465769549e-27 2.00508432332126e-05)
(1.96468194245695e-05 1.22965234234632e-07 -1.67410263653707e-21 1.96548057097761e-05 -5.46293415095564e-23 1.96509933170912e-05)
(1.92321501451907e-05 1.0838626346864e-07 -3.39221161671835e-21 1.92396808933536e-05 -1.15310743972364e-20 1.9236095469771e-05)
(1.88032180775558e-05 9.46749276205286e-08 -1.84969696534418e-22 1.8810283492473e-05 -2.23320271645096e-20 1.88069291429912e-05)
(1.83605136040019e-05 8.18564003483045e-08 3.08370318634841e-21 1.83671059221568e-05 -1.07810943192354e-20 1.83639860771329e-05)
(1.79043772007567e-05 6.99469412070559e-08 1.55107205928668e-21 1.79104902176165e-05 6.05342166931303e-23 1.79076071688824e-05)