/*--------------------------------*- C++ -*----------------------------------*\
| =========                 |                                                 |
| \\      /  F ield         | OpenFOAM: The Open Source CFD Toolbox           |
|  \\    /   O peration     | Version:  4.1                                   |
|   \\  /    A nd           | Web:      www.OpenFOAM.org                      |
|    \\/     M anipulation  |                                                 |
\*---------------------------------------------------------------------------*/
FoamFile
{
    version     2.0;
    format      ascii;
    class       volVectorField;
    location    "30000";
    object      U;
}
// * * * * * * * * * * * * * * * * * * * * * * * * * * * * * * * * * * * * * //

dimensions      [0 1 -1 0 0 0 0];

internalField   nonuniform List<vector> 
21000
(
(0.0186777033043487 2.61270230796411e-06 0)
(0.0199433705660639 -0.000251432794689752 0)
(0.0160524938978821 -0.00131834584833875 7.30839622612275e-22)
(0.00166686276616381 -0.00047034971260746 -8.66627120318049e-22)
(-0.00675011829728277 0.00214395788626894 -5.96737284480995e-18)
(-0.00864172125395727 0.00424509466054374 0)
(-0.00608760489451492 0.00379353308805315 -1.02130756730171e-21)
(-0.00421208302840914 0.00302854820469154 3.48246359759338e-22)
(-0.00339183512802125 0.00265542224998221 -1.15888477370841e-17)
(-0.00290788527989407 0.00239361995857438 1.1894252822565e-17)
(-0.00252580301192937 0.00212733187625114 -1.50811560164797e-21)
(-0.00217813274290874 0.0018364349900538 2.57765642503787e-17)
(-0.00194932698483035 0.00161778531322332 3.30163394313743e-21)
(-0.0018230368385329 0.00148888659628987 -1.41715197665465e-17)
(-0.00178057564406638 0.00143472295584786 1.47861640172777e-17)
(-0.00183475282796415 0.0014618524702489 0)
(-0.001991833428928 0.00157124296009925 0)
(-0.00224594547873402 0.00175695369241323 1.64752504799915e-17)
(-0.00257744272988966 0.00200176969624061 -1.6987720860455e-17)
(-0.0029285393708085 0.00224883425121766 -1.71523276546397e-20)
(-0.00327978177239311 0.00246185078733274 -1.7757736528358e-20)
(-0.00360121423053405 0.00260895347504143 -1.88097235720984e-17)
(-0.00385293373366298 0.00265594655153223 -3.82403295489292e-20)
(-0.00400126125712695 0.00258002274944638 1.98895702907419e-20)
(-0.00402674171214689 0.00237724509941545 0)
(-0.00398046708755262 0.0020981311485657 1.10532002475128e-17)
(-0.003886124890324 0.00178838000173634 1.15168370812916e-17)
(-0.00372290574453611 0.0014557148144793 -4.6294854531021e-20)
(-0.00355421406621163 0.00113422489463802 0)
(-0.00337327182867636 0.000825204721737346 0)
(-0.00343409217167266 0.00057278983627235 -4.93695101558065e-20)
(-0.00333874729577107 0.000284402604050784 -3.15507814939635e-18)
(-0.00479170293851407 8.70763689037928e-05 1.83669740185345e-15)
(-0.00751557119923788 3.1767699342873e-05 1.8624377937678e-15)
(-0.00982060919278588 3.84114681002333e-05 -2.46856761393868e-20)
(-0.012207761741788 4.11951085829731e-05 2.46512088972396e-20)
(-0.0143620108243284 4.51562490389413e-05 -2.4656726228413e-20)
(-0.0163800686623457 4.72763593588266e-05 -3.04381556416448e-23)
(-0.0181922838140047 4.94284821999236e-05 -3.80682479824667e-23)
(-0.019839664199745 5.08183796555039e-05 4.93374450905978e-20)
(-0.0213190656013356 5.20454878018132e-05 5.26636378424786e-23)
(-0.0226545711460254 5.2869103674944e-05 -2.47034243634301e-20)
(-0.0238550391614674 5.34666441029548e-05 0)
(-0.0249344149438704 5.37517678398993e-05 2.48678243064916e-20)
(-0.0259001618040064 5.37706427243817e-05 7.78655510947534e-23)
(-0.026759706217291 5.3488343623324e-05 -4.99220835179433e-20)
(-0.0275174577263078 5.29156733711191e-05 -1.86245507504997e-15)
(-0.0281771111138199 5.20405706306821e-05 -1.88722392817873e-15)
(-0.02874101565974 5.0869320128986e-05 2.51567373707911e-20)
(-0.0292111084832771 4.94039822414794e-05 2.53511542734047e-20)
(-0.0295888737170243 4.76553513502748e-05 -2.53459801724156e-20)
(-0.0298757422954899 4.5634879838856e-05 1.27797054389139e-20)
(-0.0300731567207674 4.33593563297449e-05 1.90798411550823e-15)
(-0.030182763319957 4.08492625917228e-05 1.93056447306293e-15)
(-0.0302064381336379 3.81275633847845e-05 1.28933629376439e-20)
(-0.0301463972025966 3.52194040797066e-05 0)
(-0.0300052666881291 3.21537105150315e-05 0)
(-0.0297860470360554 2.8959147556224e-05 -1.90771552170589e-31)
(-0.0294921127092939 2.56649087513104e-05 1.91719475918526e-31)
(-0.029127183778439 2.23001018736408e-05 0)
(-0.0286952911104368 1.88933665417748e-05 0)
(-0.028200735591109 1.54723328505304e-05 -6.70412551563379e-21)
(-0.0276480401518701 1.20632376676868e-05 6.706283605584e-21)
(-0.0270419000963433 8.6905594149556e-06 -6.7726382281389e-21)
(-0.0263871312090759 5.37672946347263e-06 6.77526525790749e-21)
(-0.02568861901347 2.14193404319857e-06 -2.03955050691935e-15)
(-0.0249512695976063 -9.96049897393602e-07 -1.03285938874215e-16)
(-0.0241799634022111 -4.02191628903285e-06 1.9623188943774e-15)
(-0.0233795132081427 -6.9228583305744e-06 -1.72823023848842e-21)
(-0.0225546263537933 -9.68852856220651e-06 0)
(-0.0217098720632403 -1.23109610734289e-05 0)
(-0.0208496539492565 -1.47844477950042e-05 -1.76061735641806e-21)
(-0.0199781878086575 -1.71053921350409e-05 1.7615588351617e-21)
(-0.0190994847816555 -1.92721299459107e-05 0)
(-0.0182173390391638 -2.12847593296256e-05 0)
(-0.0173353212523724 -2.31449086105651e-05 0)
(-0.0164567746466027 -2.48556088253794e-05 0)
(-0.0155848184554596 -2.64209672353775e-05 0)
(-0.0147223496266762 -2.78462007202502e-05 0)
(-0.0138720575784865 -2.91370731109027e-05 0)
(-0.0130364248580117 -3.03003846529298e-05 0)
(-0.0122177608894918 -3.13426834140901e-05 0)
(-0.0114181872983683 -3.22720245609475e-05 0)
(-0.0106397106877758 -3.30947106345573e-05 0)
(-0.00988415941047771 -3.38202313058274e-05 0)
(-0.00915334768175935 -3.44531280024403e-05 -2.22904129208546e-15)
(-0.00844888116161867 -3.50055064882415e-05 -4.45747723691263e-15)
(-0.00777254593865214 -3.54773747894068e-05 -2.22724239999085e-15)
(-0.00712577660037658 -3.58867287724398e-05 0)
(-0.00651059748540142 -3.62234828621016e-05 3.01134098300035e-20)
(-0.0059282449430912 -3.65192240577666e-05 -3.01246233033422e-20)
(-0.00538146792583365 -3.67416742001031e-05 -3.02799633356629e-20)
(-0.00487105999969346 -3.69535486493402e-05 3.02899172192548e-20)
(-0.00440144923401137 -3.7073762984124e-05 0)
(-0.00397217928851455 -3.7235259197817e-05 0)
(-0.00359134756465496 -3.72502011323916e-05 3.058759771847e-20)
(-0.00325502137049447 -3.74105285812291e-05 -6.12539416911925e-20)
(-0.00297926596473946 -3.72877890058847e-05 3.06654137817474e-20)
(-0.00275105111666282 -3.75379520822504e-05 -3.07979715077384e-20)
(-0.00260368661726186 -3.71845117036485e-05 3.0801639630798e-20)
(-0.00250152889409403 -3.77168707625453e-05 -3.09293395036082e-20)
(-0.00251579437704257 -3.689301771999e-05 6.1921424056269e-20)
(-0.00255693033247306 -3.81527676038522e-05 -6.20415160038626e-20)
(-0.00277708517491318 -3.63411225022095e-05 3.10471134777179e-20)
(-0.002964795625524 -3.93364087808191e-05 0)
(-0.00343749409567548 -3.55163351184088e-05 -3.12201023843379e-20)
(-0.00371594584221388 -4.30487619792042e-05 -6.15607320500647e-23)
(-0.00442589816205249 -7.73507435303367e-05 3.12793962735374e-20)
(-0.0050669916728474 -0.000428059032652961 -6.28857274952288e-20)
(-0.00516648471756517 -0.000804507439868997 -7.94155357171856e-18)
(-0.00519420719057753 -0.00117872284545142 0)
(-0.00475413738313153 -0.00139781763837106 -1.55240757508547e-17)
(-0.00411458874289353 -0.00146944171000771 0)
(-0.00314321372790508 -0.00129452018367152 -1.47413072093392e-17)
(-0.00198302049324463 -0.000886129112464328 -1.41998447337953e-17)
(-0.000545881738441039 -0.000168808922822562 -2.73933623525275e-17)
(0.00117383312273048 0.000887744229225199 5.27542989857636e-17)
(0.00310536727260813 0.00222983593765408 0)
(0.00522052679885696 0.00380679832499888 2.44809456995484e-17)
(0.00746894362134916 0.00554634712382787 0)
(0.00983525688027699 0.00738935830909939 0)
(0.0121895285485843 0.00919919192566904 -2.20859831680922e-17)
(0.0143175480827698 0.010842343237393 -2.09038613705121e-20)
(0.0162462503863327 0.0123938735480274 0)
(0.0181760555103223 0.0140116593589003 0)
(0.0201214359564099 0.0157277425209299 0)
(0.0223413042761485 0.0177410685482905 0)
(0.024914493152736 0.0201488350967009 3.71938010899857e-21)
(0.0286495151546289 0.023525405764568 -1.62810069593914e-17)
(0.0342671496303301 0.0280588821661491 1.53673857308903e-17)
(0.0418105656594946 0.0333596439107085 0)
(0.0518513537523943 0.0392689671601392 -1.12216292064989e-20)
(0.0656005793140211 0.0455957540342315 3.82940465227703e-22)
(0.0839473393386888 0.0509331279229948 1.21548828884505e-17)
(0.104861918074497 0.0511300789198675 -1.13395329496195e-17)
(0.112825502357368 0.0380815591802333 -6.28852832053851e-22)
(0.0906515069518412 0.0177659631061285 2.56691870759411e-18)
(0.059331193164079 0.00518772350096789 -1.31933491655209e-18)
(0.0315810511586623 0.000511274018532032 3.27437975173541e-22)
(0.0190709513761926 -1.54255958646669e-05 0)
(0.0640157587700529 8.25561384887768e-05 0)
(0.0655138661994199 -0.000663846330886498 0)
(0.053823060270633 -0.00347152804545321 0)
(0.0136167847733568 -0.00151077964297362 -4.581141242587e-18)
(-0.0144453052536709 0.00565166605141845 0)
(-0.0233113929096127 0.0119502813352735 0)
(-0.0175511394813892 0.0109855456159686 -1.75495789251781e-17)
(-0.0123819210712268 0.00890782517701278 0)
(-0.00996911679421985 0.00785231671526455 -1.33956284345928e-22)
(-0.00856616138207858 0.00710296024041488 -3.660106943652e-17)
(-0.00748070183420243 0.00633506107247648 2.32037449601546e-21)
(-0.00650739301304434 0.00549573383428818 -1.98339185456481e-17)
(-0.00586368635800621 0.00486111974232405 2.0802520336265e-17)
(-0.00551467011954814 0.00448930379975731 -2.17641280631957e-17)
(-0.00541294623454251 0.00434128910181142 -2.27440068445484e-17)
(-0.00559088599211778 0.00443530021881633 -2.36093083366011e-17)
(-0.00606597098293827 0.00477250391044733 2.44826988880578e-17)
(-0.00681827295335289 0.00533287423583647 2.47202842908845e-20)
(-0.00778825525773937 0.00606203582716587 1.50897860190026e-23)
(-0.00881923906234999 0.00679680477934429 -2.62742718999248e-20)
(-0.00985236169976056 0.00742842223736206 -2.71743936494807e-20)
(-0.010805634294658 0.00786237137945024 2.8867442051395e-17)
(-0.0115731822066377 0.00800039094856 -2.91899715957686e-20)
(-0.0120673846212068 0.00777837477734881 0)
(-0.0122432730829473 0.00719039486098351 3.23652470256175e-17)
(-0.0122284475269942 0.00637678893690692 1.68417815287611e-17)
(-0.0120857425985102 0.00546522593090771 6.82479767672501e-20)
(-0.0117752007834258 0.00448627639461115 2.0432049326485e-15)
(-0.0114619517429475 0.00353361469477269 -3.42505317298259e-17)
(-0.0111827937692524 0.00262955909771993 -2.36918130369887e-15)
(-0.0115600013303581 0.00186190116116086 7.49974366927697e-20)
(-0.0119517153666 0.00109415690733376 7.52944000793534e-20)
(-0.0164929693824331 0.00063873637682471 -2.81192798776336e-15)
(-0.0241711772704617 0.000496428319480818 -2.74497320051972e-15)
(-0.0307823520639462 0.000482731262383575 0)
(-0.0374135416276327 0.000456028346787385 0)
(-0.0433538355688339 0.000422700813724741 0)
(-0.0488311420126787 0.000384520911594081 0)
(-0.0537109275693158 0.000347830362743 2.63315513868215e-31)
(-0.058102162582726 0.000312945881124551 -3.61513616282306e-20)
(-0.0620153287265949 0.00028148932548085 3.6030694102279e-20)
(-0.0655167396217128 0.000252809571094228 -3.60869694280588e-20)
(-0.0686368302865538 0.000226847791508955 3.59915702640179e-20)
(-0.0714142788043167 0.000202904269785247 0)
(-0.0738718125706065 0.000180611593039434 0)
(-0.0760304727301715 0.000159490391883479 0)
(-0.0779037408246967 0.000139254961882581 2.72097320617522e-15)
(-0.0795027756677347 0.000119644074883973 2.69964469385316e-15)
(-0.0808353668849735 0.000100509451948954 0)
(-0.0819081149886894 8.17466636843022e-05 0)
(-0.0827265084534902 6.33136615394113e-05 -2.35808681559507e-15)
(-0.0832958882166576 4.51995588199045e-05 -2.38733721306308e-15)
(-0.0836216671885298 2.74277120052086e-05 -2.77214178621746e-15)
(-0.0837097408212294 1.00388225192905e-05 -2.76387194682458e-15)
(-0.0835664702241817 -6.91160923520858e-06 -1.85963710735843e-20)
(-0.0831989981738036 -2.33530829196167e-05 0)
(-0.0826155462102362 -3.92081724102033e-05 0)
(-0.0818252012825803 -5.4404869324721e-05 2.75368814048532e-31)
(-0.0808379140781943 -6.88741552477815e-05 -2.76891969671569e-31)
(-0.0796644208517277 -8.25534980764636e-05 0)
(-0.0783161502322011 -9.53877682175075e-05 1.92962920636097e-20)
(-0.0768051166616862 -0.000107330736049889 -2.90265263264514e-20)
(-0.0751437990215071 -0.000118345746404497 9.71988647731579e-21)
(-0.073345016506028 -0.000128406126324421 0)
(-0.0714218013265059 -0.000137495243131878 0)
(-0.0693872755353381 -0.000145606166590994 2.97247464092466e-15)
(-0.067254533106904 -0.000152741248090268 1.41543216527058e-16)
(-0.0650365303607403 -0.0001589113431827 -2.85959915572966e-15)
(-0.0627459872923651 -0.000164135006599436 2.94685755371852e-31)
(-0.060395299860664 -0.000168437541009836 0)
(-0.0579964650556786 -0.000171850001113063 0)
(-0.0555610187511699 -0.00017440815065898 -3.00439962557306e-31)
(-0.0530999865227202 -0.000176151443414826 0)
(-0.0506238473115716 -0.0001771220174417 0)
(-0.048142508340022 -0.000177363781420058 0)
(-0.0456652933113857 -0.000176921426673076 1.06033001938756e-20)
(-0.04320093786825 -0.000175839790832839 -1.06282100188437e-20)
(-0.0407576011068747 -0.000174162716130309 0)
(-0.0383428757740157 -0.000171932992931939 -2.15824919469586e-20)
(-0.0359638250972471 -0.000169190661678792 2.16322992400818e-20)
(-0.0336269939552315 -0.000165974266373386 2.18240287898798e-20)
(-0.0313384869153283 -0.000162317077743331 -2.18730142807307e-20)
(-0.029103950329605 -0.000158252077188818 -2.20569487131767e-20)
(-0.0269287347800428 -0.000153802280591973 2.21045212714276e-20)
(-0.024817776222944 -0.000148995040529729 0)
(-0.022775959487045 -0.000143837896824861 3.33128759871311e-15)
(-0.020807713041125 -0.000138354704332676 6.71726715284937e-15)
(-0.0189178810801716 -0.000132528035960368 3.38714586093506e-15)
(-0.0171105519826818 -0.000126385136267078 -1.15988602434755e-22)
(-0.0153912153235549 -0.000119865770169786 4.54714326285984e-20)
(-0.0137636092137253 -0.000113017190398347 4.57725851945945e-20)
(-0.0122351164734732 -0.000105699320382945 -4.58457765649789e-20)
(-0.0108085966193436 -9.80198472606599e-05 0)
(-0.00949576956692648 -8.96843941647847e-05 0)
(-0.00829671783508658 -8.09540341132083e-05 0)
(-0.00723256461536866 -7.12240746221859e-05 0)
(-0.00629526225101786 -6.11319008174916e-05 0)
(-0.0055261750355595 -4.94102327211052e-05 0)
(-0.00489545143810252 -3.76237163931829e-05 0)
(-0.00448792460358152 -2.30312009346449e-05 0)
(-0.00421889371203494 -9.42840011467438e-06 0)
(-0.00426774855929936 9.34231745255695e-06 0)
(-0.00441792405569148 2.3892510718153e-05 0)
(-0.00505095665281595 4.84551754852341e-05 0)
(-0.00564993779183351 5.98796332169224e-05 0)
(-0.00700598139007752 9.09043002800167e-05 0)
(-0.00794884759669869 8.53581911129427e-05 9.52738505754157e-20)
(-0.0100777692207403 4.42297875529669e-05 -8.56738400594615e-19)
(-0.0118255221705921 -0.000903053433680774 0)
(-0.0120135075044642 -0.00189731053630525 0)
(-0.0118631177213981 -0.00285710500555206 -2.40517709304844e-17)
(-0.0104697453891028 -0.00337419056641417 2.36225015641663e-17)
(-0.0085214364815073 -0.00345354653731985 2.30873888120802e-17)
(-0.00571799373064861 -0.00283878533570381 -2.24666427419899e-17)
(-0.00241851798414398 -0.00156055873005347 0)
(0.00160129206416789 0.000576699582709625 4.19537673731042e-17)
(0.00633068083440269 0.00364692074489866 2.03071774590606e-21)
(0.0115874576803895 0.00749800645947945 -3.77897921864882e-20)
(0.0173036935640435 0.0119872563327102 7.26165643688022e-20)
(0.023363999917679 0.0169196930833332 -6.99387708836706e-20)
(0.0297287882061761 0.0221312834950483 3.37412086339513e-20)
(0.0360775296595751 0.0272634584902498 3.34047553828548e-17)
(0.0419009602668615 0.0319765448571466 -3.2294566410426e-17)
(0.0472442167284582 0.0364620325460171 -1.51869071936051e-20)
(0.052572157909862 0.0411313122764783 1.46417237711924e-20)
(0.0579637144782824 0.0460958263663543 -2.86840523658422e-17)
(0.0640424786865443 0.0518814908674974 -2.73629104844466e-17)
(0.0710848235965078 0.0587854071776654 2.5969637658395e-17)
(0.0810628272147512 0.0682920734481366 0)
(0.0958108207601559 0.0808635913834598 0)
(0.115667976692922 0.0954692360201023 0)
(0.142037245576201 0.111541680893481 -2.04218179909858e-17)
(0.177796680037739 0.128333049229562 -2.98260102871183e-22)
(0.225095068720862 0.141921518206301 0)
(0.279446575121834 0.141776034285603 8.2550766520172e-18)
(0.306520924552268 0.107959022583365 0)
(0.262660191507012 0.0542430547883125 -3.71854498447396e-18)
(0.185553222317816 0.0182482501090419 1.41293057487832e-21)
(0.109498646898731 0.00329386516622139 -4.8689732781686e-22)
(0.0701181865455284 0.000534161015801634 0)
(0.118789520165913 0.00043181983960027 0)
(0.117983492078492 -0.000947429111275863 5.56574717103182e-22)
(0.0982376307044983 -0.0053017043062061 5.66007285850013e-22)
(0.0346370339961394 -0.00323993485158902 2.07804205925876e-23)
(-0.0161795659048345 0.00770179901013494 -1.13200705623123e-21)
(-0.0356044932283304 0.0184115222971188 9.18124147646446e-18)
(-0.0285547176266134 0.0175670378233521 1.80485395798836e-17)
(-0.0205107630147103 0.0144983566359491 5.51030507998409e-22)
(-0.0165274260246471 0.0128616061165169 9.44422997459728e-22)
(-0.0142267538205246 0.0116832175248577 1.88839223722133e-17)
(-0.012471543528763 0.0104626871370445 0)
(-0.0109096508986353 0.00913200446776386 2.04684581395604e-17)
(-0.00986948036422745 0.00812520469263618 -5.48804286391589e-21)
(-0.0093103759238455 0.00754523206720416 9.52877733420159e-23)
(-0.00916227155578535 0.00733657633282822 -2.34405642914275e-17)
(-0.00947225486303287 0.00752747404397273 2.43554887258608e-17)
(-0.0102682174598498 0.00811649508778585 -2.52279543023565e-17)
(-0.0115144017439691 0.00906583547294 2.60317070055701e-17)
(-0.0131111518819715 0.0102778852109401 5.24404694510649e-20)
(-0.0148139384525233 0.0114924755268212 -2.70089821751091e-20)
(-0.0165234596747012 0.012529783352697 -2.85691097039881e-17)
(-0.0181108272664294 0.0132360318655341 2.88828109079252e-20)
(-0.019414334715354 0.0134570203767333 -3.07201608655045e-17)
(-0.0203035821660025 0.013096289046418 -3.11477203077611e-20)
(-0.0207210210733302 0.0121562173949058 -3.30144817296834e-17)
(-0.0208561116423094 0.0108514375878411 -1.72362208507182e-17)
(-0.0208072767155736 0.00937635377904427 3.11099882297496e-15)
(-0.0205345792406144 0.00778941041528337 1.22487904551095e-15)
(-0.02028724906543 0.00623086169462005 1.21385896469946e-16)
(-0.0201911125090809 0.0047572231352893 2.3734073397559e-15)
(-0.0211353445486836 0.0034674103646981 -9.70622708527157e-18)
(-0.0226824400093475 0.00229605895165734 0)
(-0.0304985155658964 0.00165171807436039 6.00506169494479e-19)
(-0.0426931303494019 0.00144296109349285 0)
(-0.0532916582064912 0.00137723328913111 3.55747737269422e-15)
(-0.0636393449708125 0.00128925414037046 3.58356746588273e-15)
(-0.072834531343912 0.00118029711223744 3.61133258075777e-20)
(-0.0811935970837778 0.00106579963624865 -7.17574709028618e-20)
(-0.0885809628822884 0.000956481219080786 -5.51578277211318e-23)
(-0.0951646592305626 0.000855295413929182 7.11304877791807e-20)
(-0.100985089774931 0.000764290725087756 7.56287648821817e-23)
(-0.106146274452522 0.000682081115214994 -3.53431673834738e-20)
(-0.110702973249355 0.000607694131394929 3.53849628758177e-20)
(-0.114715941454298 0.000539308164286873 -3.52641219792893e-20)
(-0.118223246747513 0.000475667526476956 0)
(-0.121258543785996 0.000415501829884948 0)
(-0.12384461746748 0.000357964525296746 0)
(-0.12600027978223 0.000302367298883891 0)
(-0.127739510034735 0.000248293329573808 3.56012020365264e-20)
(-0.129074391021677 0.00019547173224986 -3.55626590417554e-20)
(-0.130015429679431 0.000143788721450269 2.32097006406466e-15)
(-0.130572897014585 9.32241474268326e-05 2.3098488604958e-15)
(-0.13075720953188 4.38411456417097e-05 0)
(-0.130579437331092 -4.27190244089835e-06 0)
(-0.130050965825183 -5.09878221199102e-05 0)
(-0.12918441691688 -9.61153369179444e-05 0)
(-0.127993864324266 -0.000139455226182982 0)
(-0.126494499451256 -0.000180830959021048 1.85079414507609e-20)
(-0.12470261713219 -0.000220074487287457 -1.85262313503092e-20)
(-0.122635497145532 -0.00025703567542789 0)
(-0.120311265447958 -0.000291584667847325 -1.88488418260941e-20)
(-0.117748739098236 -0.000323615250936104 9.39627162008736e-21)
(-0.114967254288103 -0.000353046339996799 9.50665070701498e-21)
(-0.111986492704608 -0.000379822691865004 0)
(-0.108826306384851 -0.000403914770670644 9.68890921621625e-21)
(-0.105506550100711 -0.000425317686989686 -1.45955505589336e-20)
(-0.102046922818696 -0.000444049882344784 4.89440551186873e-21)
(-0.0984668220855377 -0.000460151027990114 0)
(-0.0947852142978136 -0.000473679834937455 1.24797550621896e-21)
(-0.0910205208331378 -0.000484711555054333 -1.25219239707106e-21)
(-0.0871905221486629 -0.000493335379487952 -1.26731396272922e-21)
(-0.0833122796554204 -0.000499651757934499 1.27187672685164e-21)
(-0.0794020754421984 -0.000503769787089886 0)
(-0.0754753694149468 -0.000505804661374181 5.18760698826423e-21)
(-0.0715467719948105 -0.000505875324507505 -1.5661997437092e-20)
(-0.0676300343184624 -0.000504102036214454 -3.91032179192247e-23)
(-0.063738049126067 -0.000500604620369633 -3.83313199826935e-23)
(-0.0598828720326144 -0.000495499828298582 1.06544358275322e-20)
(-0.0560757433495079 -0.000488900744204815 0)
(-0.052327142304713 -0.000480913239971523 0)
(-0.0486468132071299 -0.000471637741944773 -2.18498915231303e-20)
(-0.0450438724287837 -0.000461162025192985 -6.87960820425554e-23)
(-0.0415268015065637 -0.000449569654710374 2.2084833953613e-20)
(-0.0381036626238939 -0.000436922259035547 0)
(-0.0347819663559858 -0.000423284362330967 0)
(-0.031569150338601 -0.000408680258911744 0)
(-0.0284720750707914 -0.000393156261882183 0)
(-0.0254981846563127 -0.000376680534698448 0)
(-0.0226539720547319 -0.000359288404589998 4.59982871285899e-20)
(-0.019947904719214 -0.000340858762368535 1.15064196232829e-22)
(-0.0173861573231175 -0.000321435145258198 -4.640065694633e-20)
(-0.014980065007444 -0.000300743364900619 -4.67600536101274e-20)
(-0.0127348201181102 -0.000278887182267 9.38894066996781e-20)
(-0.0106682247044398 -0.000255322897497313 -9.43529311306821e-20)
(-0.00878191187092717 -0.000230338872005984 9.47987834813844e-20)
(-0.00710754627485009 -0.000202875300112572 -4.75617415353593e-20)
(-0.00563584167946911 -0.00017371709209019 -4.78679960828511e-20)
(-0.00442794407813336 -0.000140764452769837 -1.00573264163513e-22)
(-0.00344469665712764 -0.00010613432525476 4.81428609224695e-20)
(-0.002809940577917 -6.54613175971906e-05 0)
(-0.00240860657742913 -2.42302256430486e-05 0)
(-0.00249944250323487 2.71284295619949e-05 0)
(-0.00278287564228309 7.43399902280456e-05 0)
(-0.00380811554141414 0.000139429782076692 9.75926295389572e-20)
(-0.00484969500796311 0.000185073783797417 -4.80713349627946e-15)
(-0.00704603150054408 0.000262816572364075 -4.72945582161381e-15)
(-0.00874411417820715 0.000280624368879973 9.74228962542929e-20)
(-0.0122768497399849 0.000302868745857875 8.76502703074601e-19)
(-0.0149370720623446 -0.00103609014873331 -9.76243344687517e-20)
(-0.0150904981285061 -0.00237429300564577 9.74888006139429e-20)
(-0.0145681807962742 -0.00360931194439733 2.4516203437471e-17)
(-0.0121978885149171 -0.00414267648816905 -9.45243739443772e-20)
(-0.00898598749273203 -0.00397424302663652 -2.36302978905299e-17)
(-0.00453263534168837 -0.00274678867094383 4.6037543148194e-17)
(0.000659468480694695 -0.000501400488847054 8.68957943042971e-20)
(0.00692899555778223 0.00303475042859617 -8.35636845085351e-20)
(0.0142475424473256 0.0079558993416565 1.21731961224395e-19)
(0.022356532110836 0.0140331591213594 -3.82693498319576e-20)
(0.0311618916151716 0.0210510027084794 3.76210648680178e-17)
(0.0405056040965689 0.0287274188561774 3.62545550318982e-17)
(0.0503231195412814 0.0368167484727852 -3.49047937501247e-17)
(0.060146623644785 0.0448121776324069 -3.37288596521746e-17)
(0.0692624662412681 0.0522482420572352 6.51740528882608e-17)
(0.0777146083204615 0.059383098715976 1.54051676086025e-20)
(0.0861409913084308 0.0667902602472333 3.02438229851171e-17)
(0.0947036863072034 0.0746739490139394 5.79278533013712e-17)
(0.104295828771179 0.083775315691348 2.76306609068715e-17)
(0.115416269056473 0.0945793261259218 0)
(0.130912884663317 0.109127256676716 5.97552576230253e-21)
(0.153471193004864 0.128018622247878 -2.89767993552747e-21)
(0.18375789660378 0.149782372311299 -2.68022423385996e-21)
(0.22369955346282 0.173340818584651 -2.02990489996626e-17)
(0.277131246599156 0.197198222314524 -8.53427142271634e-22)
(0.346730093757633 0.215453066473573 1.74191046238064e-17)
(0.426302446552389 0.213795334368444 8.04994366454544e-18)
(0.472282058003711 0.166356504225058 7.54190078742748e-18)
(0.424122540160899 0.0899214201290318 -3.60885772792333e-18)
(0.3183161043486 0.0342044920627801 -9.102082943475e-22)
(0.202575747577548 0.00826558124521878 -2.48352167640285e-19)
(0.135323643868145 0.00201456709250022 0)
(0.183753657753416 0.00122351400023419 0)
(0.17789265043832 -0.00098361437759726 1.11754954111614e-21)
(0.149667268852814 -0.00679993315908626 2.26343641745563e-18)
(0.0650720181350649 -0.00542066071387861 0)
(-0.0111274343765065 0.00848531006827654 0)
(-0.0450392530199415 0.0237466381580715 -1.88668060933475e-17)
(-0.0388985819494542 0.0235677312431767 -1.85581543583787e-17)
(-0.0285165077521824 0.0197989889372747 0)
(-0.0230156381531947 0.0176834573258069 1.89436493013278e-17)
(-0.0198490113314552 0.0161361330793777 2.37913301106123e-21)
(-0.0174665510144543 0.014511909345769 -2.46390598718753e-21)
(-0.0153635555407519 0.0127441857759237 -2.11121820572379e-17)
(-0.0139549440236733 0.0114079237951971 -2.21613542327813e-17)
(-0.0132053242436294 0.0106539924521696 2.31967663243337e-17)
(-0.0130288068377981 0.0104170801968775 2.41731001152475e-17)
(-0.0134829346365049 0.0107341109077822 0)
(-0.0146046798541835 0.0115985319378817 -2.53754892138464e-20)
(-0.0163407550266085 0.0129508761249298 5.26388725882012e-20)
(-0.018550694299395 0.0146452731396981 1.58758274069974e-23)
(-0.0209136835489283 0.0163325152809195 -2.7728865624734e-20)
(-0.0232905594254271 0.017763806051053 2.92714638748125e-17)
(-0.0255117307685889 0.0187298859433468 -3.02618971604257e-17)
(-0.0273712733976323 0.0190286050613929 3.13249488673297e-17)
(-0.0287087678631202 0.0185400217728455 3.26516444411894e-17)
(-0.0294667506112681 0.0172827695863721 -6.61906232597637e-20)
(-0.0298830088098486 0.0155314934150351 -4.65246984881697e-23)
(-0.0300868612742938 0.0135345628818342 -3.2416017589527e-15)
(-0.0300540538880947 0.0113802789843882 -3.35184212934605e-15)
(-0.0301041591990018 0.00924630888173968 1.92136097043867e-17)
(-0.0304835329821093 0.00723138437691344 7.67666060947188e-20)
(-0.0322906935072337 0.00543624576311382 9.91664304413312e-18)
(-0.035588054338411 0.00394155302347116 4.92601430166609e-18)
(-0.0467379379564876 0.00313377613053104 6.73407626427543e-19)
(-0.0629417303956867 0.00286277272639743 -7.34346927269575e-20)
(-0.0770750157012461 0.00269776850948957 -3.56992765021464e-15)
(-0.0905145964261664 0.00250193377721641 -3.46991400013123e-15)
(-0.102335187392157 0.00226872446301709 0)
(-0.112921240678631 0.00203469193572933 -7.03154988796969e-20)
(-0.122185280439726 0.00181404159631212 6.9729368365835e-20)
(-0.130350069198421 0.00161305956137479 0)
(-0.137496621685176 0.00143310597817094 0)
(-0.143762920362591 0.00127145008206946 0)
(-0.149228862694189 0.00112535840765007 0)
(-0.153974808690629 0.000991320894309944 0)
(-0.158053672691053 0.000866689930612378 0)
(-0.161510831250002 0.000749063682715753 0)
(-0.164378474333346 0.000636776308808266 0)
(-0.166683320595263 0.000528544925969584 3.42480824089546e-20)
(-0.168446247907203 0.000423572277211676 -3.4163587265393e-20)
(-0.169685628661619 0.000321358971471007 0)
(-0.170417921163949 0.000221691971480856 0)
(-0.170659240682656 0.000124539996282926 3.45656159419562e-20)
(-0.170425877821892 3.00064425748145e-05 1.53744697250323e-22)
(-0.169734684549183 -6.17836762228087e-05 -3.46329723617153e-20)
(-0.168602604442089 -0.000150606109142673 1.74500157882803e-20)
(-0.16704828914717 -0.000236105270218223 -1.7432085249669e-20)
(-0.165091718422184 -0.00031794335048356 0)
(-0.162754005737505 -0.000395819938042964 0)
(-0.160057350062043 -0.00046945162167587 0)
(-0.157024890854044 -0.00053858849036406 0)
(-0.153680539365237 -0.000603018289682899 -1.79635389435562e-20)
(-0.15004879539944 -0.000662571807464895 1.79908062642134e-20)
(-0.146154549528761 -0.000717125145811843 0)
(-0.142022886771831 -0.000766600557508301 0)
(-0.137678892249518 -0.000810965839161081 -9.22985997684971e-21)
(-0.13314746802156 -0.000850232182320476 9.25718155883028e-21)
(-0.128453162505989 -0.00088445155407779 0)
(-0.123620016312568 -0.000913712818348447 0)
(-0.118671427081049 -0.000938137701685142 0)
(-0.113630033042282 -0.000957876279013098 0)
(-0.108517617172229 -0.000973102299518818 0)
(-0.10335503142768 -0.000984008415353626 0)
(-0.0981621408760298 -0.000990801545643307 0)
(-0.0929577869863552 -0.000993698372523874 0)
(-0.087759768140423 -0.000992921167150319 1.00366441593095e-20)
(-0.0825848390346826 -0.000988693543987215 -2.02157783667139e-20)
(-0.077448722165148 -0.000981237241628408 1.01807512990621e-20)
(-0.0723661410350521 -0.000970767664015357 0)
(-0.0673508549806455 -0.000957492429467686 2.08032623777335e-20)
(-0.0624157281659146 -0.000941605706413657 -2.09189927610298e-20)
(-0.0575727707071271 -0.000923290089118391 0)
(-0.0528332655802264 -0.000902705846274441 0)
(-0.0482077757314934 -0.000880002104944462 0)
(-0.0437063922300287 -0.000855291430772823 0)
(-0.0393386043667121 -0.000828683406287642 2.19149442140283e-20)