/*--------------------------------*- C++ -*----------------------------------*\
| =========                 |                                                 |
| \\      /  F ield         | OpenFOAM: The Open Source CFD Toolbox           |
|  \\    /   O peration     | Version:  4.1                                   |
|   \\  /    A nd           | Web:      www.OpenFOAM.org                      |
|    \\/     M anipulation  |                                                 |
\*---------------------------------------------------------------------------*/
FoamFile
{
    version     2.0;
    format      ascii;
    class       volVectorField;
    location    "30000";
    object      wallShearStress;
}
// * * * * * * * * * * * * * * * * * * * * * * * * * * * * * * * * * * * * * //

dimensions      [0 2 -2 0 0 0 0];

internalField   uniform (0 0 0);

boundaryField
{
    bottomWall
    {
        type            calculated;
        value           nonuniform List<vector> 
140
(
(-0.00393203005468679 7.79968672423758e-07 0)
(-0.00419463085500397 5.09775041327904e-05 8.60957776481168e-42)
(-0.00338090190538972 0.000243551234390028 -1.54010907309789e-22)
(-0.00035745633824081 6.95402783543534e-05 2.45285766381331e-22)
(0.00146512210147536 -0.000468840347151536 1.29850393172839e-18)
(0.00195078468148664 -0.000941541271271026 0)
(0.0014087146003358 -0.000858456227626958 8.74512019581087e-23)
(0.0009788097463166 -0.00069136306300381 -8.05579567434771e-23)
(0.000778357774165671 -0.000601171866021266 2.64791555731648e-18)
(0.000651135366165598 -0.000529522532455981 -2.65154651672373e-18)
(0.000546458443832472 -0.000454796611909724 3.24722922936934e-22)
(0.000451190133870075 -0.000376421572117712 -5.31581117615375e-18)
(0.00038450423909298 -0.000316668496831042 -6.4907838597598e-22)
(0.000343171434916652 -0.000279054153474316 2.66249959696281e-18)
(0.00032090681881018 -0.000258386008052937 -2.66362291285137e-18)
(0.000317557015042922 -0.000253768240127929 6.01853107621011e-35)
(0.00033211445281085 -0.000263508916380315 1.80555932286303e-35)
(0.000361868624599839 -0.000285163340190513 -2.6615820883452e-18)
(0.000402497783624923 -0.00031479338677057 2.65941683589281e-18)
(0.000443415031554255 -0.000342463257724547 2.60184077947668e-21)
(0.000480489436495342 -0.000362189341772979 2.60419136311762e-21)
(0.000509427145714309 -0.0003699732323883 2.66109385045439e-18)
(0.000525303404814013 -0.000362321279980016 5.20929297690394e-21)
(0.000524915781355994 -0.000338045518147851 -2.60470823264279e-21)
(0.00050759285644045 -0.000298955730998771 -2.24190282588827e-34)
(0.000482145036125056 -0.000253505667576598 -1.33521305494693e-18)
(0.000453782481728552 -0.000208265461352706 -1.34085039415762e-18)
(0.000420895328885319 -0.000164167243833061 5.21726947518032e-21)
(0.000391031969169493 -0.000124560944834271 3.57820480390304e-35)
(0.00036331153793414 -8.91964735175733e-05 -1.4722831645179e-32)
(0.000364604364087627 -6.12788197441163e-05 5.2232641547219e-21)
(0.000352229544457845 -3.2598105206062e-05 3.31590925819202e-19)
(0.000504801003902851 -1.75336526510577e-05 -1.93224076182686e-16)
(0.000791339144849187 -1.31809218039699e-05 -1.96062896005851e-16)
(0.00103385423138318 -1.35310622152073e-05 2.59880390847002e-21)
(0.00128517213039165 -1.36602322123521e-05 -2.59517531996664e-21)
(0.00151196552826388 -1.35760025018381e-05 2.59575356107587e-21)
(0.00172442417746292 -1.32802909236437e-05 3.20355330084127e-24)
(0.00191520963469934 -1.2939386471552e-05 4.0069704927286e-24)
(0.00208864238168224 -1.25571697148962e-05 -5.1940292770895e-21)
(0.0022443899660315 -1.21884240892477e-05 -5.54382391240783e-24)
(0.00238498887169791 -1.18201826520335e-05 2.60066724040157e-21)
(0.00251137127022397 -1.1459763584354e-05 0)
(0.0026250056142373 -1.10926274244834e-05 -2.61797415149757e-21)
(0.00272667748073282 -1.0713946827326e-05 -8.19746139203089e-24)
(0.00281716879461307 -1.03135221886008e-05 5.2555757863592e-21)
(0.00289694371732599 -9.88639671382205e-06 1.96069748845834e-16)
(0.00296639123419899 -9.42730353968509e-06 1.98677616176591e-16)
(0.00302575863230994 -8.93407591691407e-06 -2.6483908263952e-21)
(0.00307524983293679 -8.4055023314531e-06 -2.66885953326338e-21)
(0.00311502105583537 -7.8422199231934e-06 2.66831482233852e-21)
(0.00314522292909801 -7.24576403273111e-06 -1.34539284211417e-21)
(0.00316600729071368 -6.6188648855657e-06 -2.00864699170778e-16)
(0.00317754744406608 -5.96514951526184e-06 -2.03242167988645e-16)
(0.00318004087989157 -5.28882970536216e-06 -1.35735931564797e-21)
(0.00317372087956189 -4.59473627135966e-06 -0)
(0.0031588639068274 -3.88829015887143e-06 -0)
(0.0031357858372422 -3.17481305439717e-06 2.00837852844887e-32)
(0.00310484192109221 -2.45965111060101e-06 -2.01836053035106e-32)
(0.00306642379560252 -1.74802877436549e-06 -0)
(0.00302095581993472 -1.04497365836661e-06 -2.8216225276515e-38)
(0.002968890782283 -3.55217718537339e-07 7.05785061052586e-22)
(0.00291070484895965 3.1687203707102e-07 -7.06012257076842e-22)
(0.00284689233471027 9.67351609957231e-07 7.12998518991079e-22)
(0.0027779602393495 1.59274237594313e-06 -7.13275083329355e-22)
(0.00270442290549278 2.19005417765615e-06 2.14718756615869e-16)
(0.00262679684131889 2.75680050664473e-06 1.08736881362854e-17)
(0.00254559585517896 3.29099472681701e-06 -2.06588262275162e-16)
(0.00246132663240365 3.79113943721872e-06 1.8194206355529e-22)
(0.0023744847574107 4.25620466484912e-06 0)
(0.00228555127390956 4.68559910314397e-06 -0)
(0.00219498978993904 5.07913459038808e-06 1.85351929748424e-22)
(0.00210324414009649 5.43698707979312e-06 -1.8545104527763e-22)
(0.00201073661255155 5.75965434982944e-06 -0)
(0.00191786665267278 6.04791422962976e-06 0)
(0.00182501017563782 6.30277751664271e-06 0)
(0.00173251915075258 6.52545275848156e-06 0)
(0.00164072196550955 6.71729062011591e-06 0)
(0.00154992360455945 6.87976896592849e-06 0)
(0.00146040720439594 7.01441569588111e-06 0)
(0.00137243412077927 7.12284450663905e-06 0)
(0.00128624748493404 7.20660061326279e-06 0)
(0.00120207065339208 7.26733999609504e-06 0)
(0.00112011487791756 7.3064560587715e-06 0)
(0.0010405726363959 7.32561457816497e-06 -0)
(0.000963634929758091 7.3258393215865e-06 2.346682129057e-16)
(0.000889470784374744 7.30887834787555e-06 4.69272543196742e-16)
(0.000818268248618212 7.27502953421319e-06 2.3447867120172e-16)
(0.000750178324490058 7.22640565500794e-06 0)
(0.000685414162513322 7.16193488572457e-06 -3.1702473104651e-21)
(0.000624105863401651 7.08479409896238e-06 3.17142782500323e-21)
(0.000566542908067514 6.99122052833096e-06 3.18778166376074e-21)
(0.000512808713327559 6.88710476337038e-06 -3.18882957317608e-21)
(0.000463369633279823 6.76323324608475e-06 0)
(0.00041817734828051 6.63190185646236e-06 0)
(0.000378084737624688 6.47277454518123e-06 -3.22016851200213e-21)
(0.000342677155433712 6.31300906049828e-06 6.44862715684044e-21)
(0.000313646842125773 6.10824515308049e-06 -3.228360717645e-21)
(0.000289620595395085 5.92064716514356e-06 3.24231592785554e-21)
(0.000274107319980029 5.65237050365549e-06 -3.24270209478781e-21)
(0.000263351294703278 5.44672587077532e-06 3.25614585975962e-21)
(0.000264855006594312 5.08251869648759e-06 -6.51889738331984e-21)
(0.000269183083275472 4.90220244568582e-06 6.53154021232447e-21)
(0.0002923647168572 4.3936492360936e-06 -3.26854466077065e-21)
(0.000312120978721033 4.37601904140288e-06 0)
(0.000361896795728726 3.68239650261072e-06 3.2867571432997e-21)
(0.000391310365344579 4.32859002611025e-06 6.48938518573819e-24)
(0.000466606962845797 6.73165924853745e-06 -3.29059728102539e-21)
(0.000534336661913333 4.41142306652995e-05 6.60930019925299e-21)
(0.000548671657521564 8.40745151822695e-05 8.40196314919711e-19)
(0.000559578993159421 0.000125449467788625 9.85534463729406e-35)
(0.000523252946638901 0.000152309522161289 1.70228115105878e-18)
(0.000465423050181228 0.000164678636480845 -6.1125706242759e-36)
(0.000367284536098528 0.000150029539935578 1.71626917054073e-18)
(0.000240317200809481 0.000106777300248099 1.71533668085773e-18)
(6.84080261645539e-05 2.20553609265555e-05 3.44486338175036e-18)
(-0.000155402772334712 -0.000113790028472587 -6.90882677647379e-18)
(-0.000426468595868229 -0.000299206408717755 6.01853107621011e-36)
(-0.000744098035336951 -0.000531452251676288 -3.46348251893088e-18)
(-0.00110311913277269 -0.000803352679273152 0)
(-0.00150200761092496 -0.0011078074246793 0)
(-0.00192016072905734 -0.00142465674570916 3.45757892864997e-18)
(-0.00232635138756773 -0.00173451227230544 3.37715366002884e-21)
(-0.0027298017069567 -0.00205179195344992 1.4399805797573e-37)
(-0.00316709374262861 -0.00240557451901383 -1.32334949963665e-37)
(-0.00364643528910188 -0.00280746895263751 1.42752033963859e-34)
(-0.00422467244054541 -0.0033014167537472 -8.46355932592047e-36)
(-0.00493349581993953 -0.00392029827048897 -3.10211945269716e-22)
(-0.00595770296128808 -0.00479343656380011 3.35755768262564e-18)
(-0.00744551008882901 -0.00595883157986029 -3.30884716184936e-18)
(-0.00940638907043958 -0.00732349153218093 -3.00926553810506e-36)
(-0.0119516904328564 -0.0088197860754634 1.02254732216452e-21)
(-0.0152922168867049 -0.0103433617083131 -8.87251329326586e-23)
(-0.0194559918021403 -0.0114847344593673 -2.80082322404376e-18)
(-0.0236918820993591 -0.011282081388708 2.55709962699395e-18)
(-0.0245102276133138 -0.00819410948784945 1.37226945172585e-22)
(-0.0191817770212928 -0.00385194363008063 -5.4502457761586e-19)
(-0.0124603799703041 -0.00120909019134389 2.77976498507664e-19)
(-0.00663456980356955 -0.000189609404177056 -6.88663974274525e-23)
(-0.00401412009342715 -1.80533266318385e-05 0)
)
;
    }
    topWall
    {
        type            calculated;
        value           nonuniform List<vector> 
140
(
(-0.00735950069593184 2.21056643254967e-07 0)
(-0.00735213827350157 4.01112017238665e-07 0)
(-0.00733841468744387 5.71293111441387e-07 0)
(-0.00731867923812604 7.30571167314435e-07 0)
(-0.00729331521954413 8.78206273185106e-07 0)
(-0.00726272975720778 1.01375246187151e-06 0)
(-0.00722734418078864 1.13701710714383e-06 0)
(-0.00718758574939815 1.248030547494e-06 0)
(-0.00714387995468727 1.3470278940613e-06 0)
(-0.00709664350557694 1.43442301325741e-06 0)
(-0.00704627826294526 1.5107794362049e-06 0)
(-0.00699316620545821 1.57677850771937e-06 0)
(-0.00693766550405516 1.63318773015246e-06 0)
(-0.00688010768556526 1.68083039904978e-06 0)
(-0.00682079581622428 1.72055835950255e-06 0)
(-0.00676000361386363 1.75322750808202e-06 0)
(-0.0066979753774352 1.77967743082506e-06 0)
(-0.00663492660141377 1.80071432075216e-06 0)
(-0.00657104516575449 1.81709760357495e-06 0)
(-0.0065064929687349 1.8295299422216e-06 0)
(-0.00644140789849749 1.83865000590713e-06 0)
(-0.00637590604776748 1.84502788531428e-06 0)
(-0.00631008408134065 1.84916281139084e-06 0)
(-0.00624402167896287 1.8514828147001e-06 0)
(-0.00617778398888994 1.85234594730745e-06 0)
(-0.00611142403909029 1.85204278142438e-06 0)
(-0.00604498506272706 1.85079991788476e-06 0)
(-0.00597850270251948 1.84878429244373e-06 0)
(-0.00591200706739453 1.84610804984964e-06 0)
(-0.00584552462030968 1.84283386551022e-06 0)
(-0.00577907988262796 1.83898051648858e-06 0)
(-0.00571269694488701 1.83452863808916e-06 0)
(-0.00564640077789767 1.82942650401953e-06 0)
(-0.00558021834275192 1.82359577377252e-06 0)
(-0.00551417950043211 1.81693709292703e-06 0)
(-0.00544831772673403 1.80933545178576e-06 0)
(-0.00538267064042473 1.8006652371061e-06 0)
(-0.00531728035603578 1.79079487256094e-06 0)
(-0.00525219367587823 1.77959100205208e-06 0)
(-0.00518746213709261 1.76692218808306e-06 0)
(-0.00512314193070032 1.7526621087045e-06 0)
(-0.00505929371003615 1.73669225696939e-06 0)
(-0.00499598230563963 1.7189041639865e-06 0)
(-0.00493327636309442 1.69920116741337e-06 0)
(-0.00487124791949047 1.67749975558555e-06 0)
(-0.00480997193312054 1.65373052272677e-06 0)
(-0.00474952577995021 1.62783876560979e-06 0)
(-0.00468998872924843 1.59978476058442e-06 0)
(-0.00463144140960058 1.56954375061539e-06 0)
(-0.00457396527540571 1.53710567714158e-06 0)
(-0.00451764208282026 1.50247469024979e-06 0)
(-0.00446255338304513 1.46566846298667e-06 0)
(-0.00440878003978529 1.42671734580888e-06 0)
(-0.00435640177672947 1.38566338059049e-06 0)
(-0.00430549675990453 1.34255921043288e-06 0)
(-0.0042561412188572 1.29746690037273e-06 0)
(-0.00420840910974476 1.25045669914947e-06 0)
(-0.0041623718225758 1.20160576082251e-06 0)
(-0.00411809793409378 1.1509968465306e-06 0)
(-0.00407565300704598 1.09871702682797e-06 0)
(-0.00403509943594749 1.04485639631547e-06 0)
(-0.00399649633881617 9.89506825207433e-07 0)
(-0.00395989949380543 9.32760748716544e-07 0)
(-0.00392536131918147 8.74710019625951e-07 0)
(-0.0038929308946356 8.15444819734368e-07 0)
(-0.00386265402154721 7.55052657243758e-07 0)
(-0.00383457331948655 6.93617436064503e-07 0)
(-0.00380872835598971 6.312186209133e-07 0)
(-0.00378515580635499 5.67930492466509e-07 0)
(-0.00376388964016481 5.03821501188633e-07 0)
(-0.00374496133087184 4.38953717095499e-07 0)
(-0.00372840008512512 3.73382381345554e-07 0)
(-0.00371423308769923 3.07155554426281e-07 0)
(-0.0037024857594577 2.40313871420749e-07 0)
(-0.00369318202226943 1.72890340526407e-07 0)
(-0.00368634457569105 1.04910399600608e-07 0)
(-0.00368199515558957 3.63912929113339e-08 0)
(-0.00368015487356892 -3.26570722522712e-08 0)
(-0.00368084436358263 -1.02231034784289e-07 0)
(-0.00368408424193405 -1.7233667440756e-07 0)
(-0.00368989542000741 -2.42989146366349e-07 0)
(-0.00369829926741393 -3.14208961088662e-07 0)
(-0.0037093176329462 -3.8601958793812e-07 0)
(-0.00372297292006456 -4.58437472345158e-07 0)
(-0.00373928783933736 -5.31475004251777e-07 0)
(-0.00375828552766769 -6.05151871481081e-07 0)
(-0.00377998988096493 -6.79495454770714e-07 0)
(-0.00380442574054892 -7.54536170207477e-07 0)
(-0.0038316189250275 -8.30303605545333e-07 0)
(-0.00386159615373005 -9.06823847764492e-07 0)
(-0.00389438489194631 -9.84117405768037e-07 0)
(-0.00393001312862479 -1.06219730180357e-06 0)
(-0.00396850908633503 -1.14106704401328e-06 0)
(-0.00400990085658098 -1.2207184115853e-06 0)
(-0.00405421595401658 -1.3011290394051e-06 0)
(-0.00410148078217821 -1.38225970997832e-06 0)
(-0.00415171999787077 -1.46405133571762e-06 0)
(-0.00420495576734482 -1.54642183556954e-06 0)
(-0.00426120691133125 -1.62926289530967e-06 0)
(-0.00432048793514876 -1.71243655358671e-06 0)
(-0.0043828079346305 -1.79577146116702e-06 0)
(-0.00444816936767974 -1.87905899473261e-06 0)
(-0.0045165666900632 -1.96204931478993e-06 0)
(-0.00458798485244297 -2.04444737454381e-06 0)
(-0.00466239765971092 -2.12590903242595e-06 0)
(-0.00473976599703141 -2.20603734362451e-06 0)
(-0.00482003593198591 -2.28437924081574e-06 0)
(-0.00490313670819087 -2.36042272905098e-06 0)
(-0.00498897865141789 -2.43359485106522e-06 0)
(-0.00507745101833033 -2.50326062295493e-06 0)
(-0.00516841982415569 -2.56872318170891e-06 0)
(-0.00526172569511964 -2.62922540791032e-06 0)
(-0.00535718179971366 -2.68395325919026e-06 0)
(-0.00545457192111139 -2.73204109093546e-06 0)
(-0.00555364874314369 -2.77257925625163e-06 0)
(-0.00565413243184317 -2.8046242605922e-06 0)
(-0.00575570960403758 -2.82721173217996e-06 0)
(-0.00585803278269634 -2.83937241162645e-06 0)
(-0.00596072044487286 -2.84015127792633e-06 0)
(-0.0060633577705674 -2.82862979312893e-06 0)
(-0.00616549819854987 -2.80395109216227e-06 0)
(-0.00626666588674058 -2.76534772221961e-06 0)
(-0.00636635915870883 -2.71217130449087e-06 0)
(-0.00646405499308698 -2.64392321303052e-06 0)
(-0.00655921457886423 -2.56028510160308e-06 0)
(-0.00665128991628083 -2.46114784578148e-06 0)
(-0.00673973139154535 -2.34663726777908e-06 0)
(-0.00682399619622288 -2.2171348850028e-06 0)
(-0.00690355740051958 -2.07329190768093e-06 0)
(-0.0069779134316111 -1.91603487354316e-06 0)
(-0.00704659765237255 -1.74656154839029e-06 0)
(-0.00710918769826897 -1.56632627781337e-06 0)
(-0.00716531420026148 -1.37701441171195e-06 0)
(-0.0072146685262723 -1.18050640288121e-06 0)
(-0.00725700918804069 -9.78832426890774e-07 0)
(-0.00729216660887568 -7.74120000283564e-07 0)
(-0.00732004604129081 -5.6853609765999e-07 0)
(-0.007340628425123 -3.64227789264335e-07 0)
(-0.00735396929034298 -1.63265917810854e-07 0)
(-0.00736019563724659 3.24153197797912e-08 0)
)
;
    }
    inlet_half0
    {
        type            cyclic;
    }
    inlet_half1
    {
        type            cyclic;
    }
    outlet_half0
    {
        type            cyclic;
    }
    outlet_half1
    {
        type            cyclic;
    }
    sideRight_half0
    {
        type            empty;
    }
    sideRight_half1
    {
        type            empty;
    }
    sideLeft_half0
    {
        type            empty;
    }
    sideLeft_half1
    {
        type            empty;
    }
}


// ************************************************************************* //
