/*--------------------------------*- C++ -*----------------------------------*\
| =========                 |                                                 |
| \\      /  F ield         | OpenFOAM: The Open Source CFD Toolbox           |
|  \\    /   O peration     | Version:  3.0.1                                 |
|   \\  /    A nd           | Web:      www.OpenFOAM.org                      |
|    \\/     M anipulation  |                                                 |
\*---------------------------------------------------------------------------*/
FoamFile
{
    version     2.0;
    format      ascii;
    class       volTensorField;
    location    "30000";
    object      grad(U);
}
// * * * * * * * * * * * * * * * * * * * * * * * * * * * * * * * * * * * * * //

dimensions      [0 0 -1 0 0 0 0];

internalField   nonuniform List<tensor> 
21000
(
(-0.0116452849278143 -0.00107466055231694 0 7.85927041102401 0.0178070912606845 0 0 0 0)
(0.0658196659651154 -0.00740809486473797 1.33338215932767e-21 7.54089434159558 -0.0703062931985527 1.15789023101986e-23 0 0 0)
(0.497247799572582 -0.0476888984271638 1.05982231584855e-21 6.58936451797373 -0.490227183028746 2.724416421131e-20 -1.15950391221397e-21 1.39485632314705e-22 -1.15249007657442e-42)
(0.578644913321898 -0.109011241664169 -4.37644074796898e-17 3.33963209041472 -0.580821025270777 -1.65318172656806e-16 -6.72786663165726e-18 1.16993205158094e-18 3.32660899495342e-34)
(0.121775904362715 -0.0250571458280648 -7.53962292573928e-17 0.524517361998841 -0.125030052919234 -2.16039243875643e-16 0 0 0)
(-0.722274443238496 0.382230285039264 1.17213174636301e-17 -1.35332051983073 0.712487229971511 1.81979721225128e-19 0 0 0)
(-0.921203330763966 0.588994973612035 -3.77432589682458e-16 -1.44173111285512 0.913968320854431 -5.88803553374418e-16 1.35415078492542e-17 -8.58399048728845e-18 5.52921666412781e-33)
(-0.817847964708298 0.594124893624097 -2.70006902934973e-17 -1.12617394518094 0.813376768403204 7.53300295604256e-20 1.95091069195455e-22 -1.30085282377563e-22 1.08708028870498e-41)
(-0.672631174818246 0.53030902018802 -2.66371998914756e-16 -0.852322060693418 0.669601938725999 -3.69104884996355e-16 -8.61614155859832e-18 6.76911059127362e-18 -3.72959080244358e-33)
(-0.547668262526439 0.453857686506086 -5.74743029756977e-16 -0.659860280716934 0.545754187470912 -7.21275863945961e-16 6.80056768609131e-18 -5.62470855322534e-18 7.4267889750976e-33)
(-0.457803914543599 0.388044248878999 3.37808062274307e-17 -0.538768328062798 0.456381113075374 -1.20214866245753e-18 -2.7496440602091e-22 2.3678745857278e-22 1.43090078762349e-36)
(-0.388689772147649 0.328900457746375 1.58600518812143e-16 -0.458007446140373 0.387748412708846 1.82001339146275e-16 4.75628987390127e-18 -4.02661230086076e-18 -1.8956843335335e-33)
(-0.341379986542965 0.283298332226361 3.61343730412332e-16 -0.410079639723177 0.340679142371996 5.47515899867113e-16 5.37649089539985e-22 -4.51099380010909e-22 -1.73536999726084e-36)
(-0.307235284347131 0.249871565481978 -7.15500540666606e-16 -0.376744311883684 0.30673349332323 -9.17937701815258e-16 -9.26143155058905e-22 7.47569711689994e-22 4.48930993651041e-38)
(-0.280411274169692 0.224006320658661 -1.13308565070073e-16 -0.350188465441827 0.280015712856795 -1.84925012105163e-16 3.54846418981915e-18 -2.83729815326679e-18 1.85362880503535e-33)
(-0.258587131156757 0.203543011494549 -4.71756767692973e-16 -0.327916002503967 0.258322334691444 -5.54918457549402e-16 0 0 0)
(-0.240711112302051 0.187233909887862 4.72852431891337e-16 -0.309000466157084 0.240501791090428 5.57464124452248e-16 0 0 0)
(-0.224805124067939 0.173379905807363 2.54777024098336e-16 -0.291200718941269 0.224682393728739 3.79363082148407e-16 -1.40130918318155e-21 1.08152110922713e-21 -7.12788369985009e-38)
(-0.21000154367431 0.160999043746863 -3.26741856110478e-16 -0.273680802684921 0.209911243496902 -3.74163578593606e-16 2.66276281526024e-21 -2.04876848748252e-21 3.70809905087659e-36)
(-0.193509949578276 0.146877288218905 3.59944673765218e-17 -0.254671717372663 0.193486276286139 -3.71148953390625e-18 -1.26434412952831e-21 9.69674817443076e-22 -3.52609426474e-36)
(-0.176099084011185 0.130797457722779 -4.13867499959867e-17 -0.236694999738942 0.176136354864019 2.46748884220288e-18 -1.10660316789673e-21 8.16585868172689e-22 -3.71987847537848e-36)
(-0.157851251697516 0.113226540351274 1.36433548903779e-16 -0.219546185500426 0.157956287181174 1.92042258117334e-16 -2.13710786581613e-18 1.53730329212171e-18 1.87576345368146e-33)
(-0.139094620613205 0.0948899906286316 3.86239219794173e-17 -0.203231818801397 0.139267576746885 -4.76261048744995e-18 -1.88337874785721e-21 1.30310172144477e-21 -3.53246677989427e-36)
(-0.120021963730159 0.0764393055990963 3.32898422516574e-19 -0.187602333630784 0.120261481583822 3.84974373982216e-19 8.77020195435792e-22 -5.8986915146524e-22 3.39392843407654e-39)
(-0.101333367346093 0.0588523526623541 3.82448893032891e-16 -0.173373313572361 0.101640364771661 6.11585822090698e-16 0 0 0)
(-0.0839982382178313 0.0433144741772362 2.99080068065902e-16 -0.161476403907875 0.084358976496366 5.25097779444414e-16 0 0 0)
(-0.0691728436409027 0.0309264646138328 7.91575242015471e-17 -0.152928197266625 0.0695813299244875 2.21768562570928e-16 1.21959953408108e-21 -5.28842949914828e-22 -3.67757176951695e-36)
(-0.0554965949370199 0.0208611944081583 1.44302150905841e-14 -0.144988243794803 0.0559002207476775 3.76443885884697e-14 -1.18058129024537e-21 5.11923852625964e-22 3.55991643428887e-36)
(-0.0445578479992421 0.0134768259749838 -1.95457915073836e-16 -0.143317101146908 0.045030499813851 -6.2814850215221e-16 0 0 0)
(-0.0338474076910877 0.00762025955297938 -1.02588230561687e-14 -0.141625204045022 0.034206425782239 -4.33600506362647e-14 0 0 0)
(-0.0257936920606971 0.00374304876506757 -5.73067252409399e-18 -0.157029697263128 0.0263445846583983 9.42132708544639e-19 -1.19146756909333e-21 1.54416769016849e-22 -9.224621362026e-37)
(-0.0159625796748834 0.000804183314017579 3.37716691115818e-15 -0.171344243016707 0.0161518190793831 -3.37577935223177e-16 4.44663346278735e-22 -1.17195546027516e-22 2.64430872792792e-34)
(-0.00722221637034677 -0.000219945727513027 3.23867626982368e-15 -0.239022764644134 0.00796744349458658 -1.80055603831528e-14 1.37414726721715e-16 -4.57342169946895e-18 1.05460125054528e-29)
(-0.00566721902248978 -5.94586389702292e-05 -3.38493231936813e-15 -0.354092039330854 0.00606904635366471 -1.60297399874849e-14 2.05125501490272e-16 -3.50485652256098e-18 9.09082032522042e-30)
(-0.00631693399113733 1.07227848022694e-05 -3.43882906542481e-15 -0.468457120893097 0.00703301774464756 2.68849122454212e-16 -2.02552889411289e-21 8.20122234942327e-24 -2.68356267336201e-43)
(-0.00728785498513041 1.03527723849128e-05 -4.01260767854811e-23 -0.609849776697874 0.00790753076350373 4.68933856767836e-19 2.02552889411288e-21 -8.2012223494232e-24 2.68356267336199e-43)
(-0.0080486196180804 1.25312079788425e-05 -4.56846589454464e-20 -0.761800329999694 0.00883594424697977 -4.66098714210147e-19 -3.22213031179098e-21 9.98670461012849e-24 -3.56786416923002e-39)
(-0.00881010347097135 1.16507598892341e-05 4.56708076466825e-20 -0.932641547491677 0.00960105926388038 -3.55586207297596e-21 -6.87392805445081e-22 9.09030019024814e-25 3.56338432330971e-39)
(-0.00936334172506626 1.17447730177491e-05 9.15527952450496e-20 -1.11345518883308 0.010254322084437 -6.48708893910198e-21 -7.30558245761971e-22 9.16365227785019e-25 7.14324559038297e-39)
(-0.0097991445959378 1.05117102550392e-05 7.16342738920462e-23 -1.30497614729204 0.0107223032978263 2.43093654135775e-19 1.00447237231199e-20 -2.44443573913902e-23 -1.42831206270423e-38)
(-0.0100430003750618 9.51361001163379e-06 -1.37337856419442e-19 -1.50156371109966 0.0110275652357536 7.06062640045179e-19 7.83587414795553e-22 -7.42282664142918e-25 1.07155443439492e-38)
(-0.0101427179455988 7.97159855562327e-06 -4.11888307323748e-23 -1.70134248072211 0.011157394709082 -1.16840178106518e-18 -6.18822977486398e-21 1.33745401985055e-23 -3.5711894612844e-39)
(-0.0100876316341618 6.52239767114864e-06 9.17826513300725e-20 -1.90047513603277 0.0111366627405031 6.91955002449472e-19 0 0 0)
(-0.00991284353403394 4.92311861093949e-06 7.32646478689489e-23 -2.09681840002582 0.0109792234874221 4.72240744620215e-19 8.54009932423165e-21 -1.48895263830748e-23 -3.59249290435611e-39)
(-0.00963135346788481 3.4237026008671e-06 -1.38122661942549e-19 -2.28789720489205 0.0107112809481465 8.36466849087666e-21 7.51469389927074e-22 -2.67128365016188e-25 1.07767774125546e-38)
(-0.00927004017737783 1.94178739185492e-06 -3.43382473033494e-15 -2.4721362865682 0.0103527437749457 1.78337454940979e-16 -1.93064159849601e-20 3.04648140368938e-23 -2.67932494907602e-34)
(-0.00884519820916241 5.61429814620578e-07 -3.47505289348107e-15 -2.64810372481173 0.00992501910267093 1.75806759608089e-14 -1.52352767433055e-15 5.71876684161412e-18 1.02447041578996e-29)
(-0.00837510161973773 -7.56329310022582e-07 3.43387095631951e-15 -2.81487486452756 0.00944431923756372 1.63643494710407e-14 -1.62764869213727e-15 5.45288365224469e-18 9.34211334088509e-30)
(-0.00787187500731559 -1.99231106667715e-06 3.47519157408616e-15 -2.97171969573431 0.00892484754439418 -1.65847873890212e-16 1.13584308338835e-20 -1.52929525994285e-23 2.71138458735747e-34)
(-0.00734630514921859 -3.16947682600999e-06 -9.28244468457474e-20 -3.11818285435212 0.00837689054364411 4.8211579731398e-19 1.25458025354793e-20 -1.4890213190647e-23 -2.60114795541807e-43)
(-0.00680556330527697 -4.28768280524654e-06 -2.31320807045474e-20 -3.253943192874 0.00780851098271915 -4.54929452006144e-14 -1.25458025356193e-20 1.48902131908131e-23 2.60114795544708e-43)
(-0.00625531310137533 -5.3588070653726e-06 3.4909634415592e-15 -3.37881714355002 0.00722533215929979 -4.61340796592785e-14 6.78242720607964e-21 -7.06878140485338e-24 -1.36187234529767e-34)
(-0.00569931145455722 -6.38389239417243e-06 3.52782204773557e-15 -3.49269507433548 0.00663154265744358 -1.76049092933267e-14 2.01064022641507e-15 -3.82094741283854e-18 1.02333077112336e-29)
(-0.00514042058679566 -7.36599028892135e-06 -3.49089337030375e-15 -3.59553319809229 0.00603011170498909 -1.67259252254356e-14 2.07758566833297e-15 -3.48149416595293e-18 9.57685833091177e-30)
(-0.00458068083116097 -8.3026314589073e-06 -3.52784544420175e-15 -3.68732722432493 0.0054233642750787 1.22680275229635e-16 7.2053027060161e-21 -6.53237621608067e-24 -1.37627882035517e-34)
(-0.0040217972523946 -9.19092164297282e-06 -2.3546043058393e-20 -3.76810825875944 0.00481319550661956 7.68354478614838e-22 0 0 0)
(-0.00346524814466005 -1.00254179260105e-05 -3.47073981318912e-31 -3.83793441363864 0.00420136068859973 9.81562242336273e-33 0 0 0)
(-0.00291249193862148 -1.08003910945478e-05 3.48461866932581e-31 -3.89689113165178 0.00358958685050104 1.68544318723302e-30 -2.18719178235457e-31 2.01456527416699e-34 9.51597116787146e-62)
(-0.00236501835151023 -1.15092929315104e-05 3.4707398131895e-31 -3.94509036987927 0.00297968782255751 -1.71001156245807e-30 2.21423234424341e-31 -1.67223572790002e-34 9.55197408742143e-62)
(-0.00182442409798845 -1.21456257427646e-05 -3.48461866932584e-31 -3.98267289253935 0.00237360435804863 8.33873895407798e-33 0 0 0)
(-0.00129242815798002 -1.27029180166817e-05 -1.215219249954e-20 -4.00981013459034 0.00177344102407178 3.66922169470685e-19 0 0 0)
(-0.000770866887324149 -1.31757222453429e-05 1.21521644337158e-20 -4.02670693367722 0.00118144740897894 -6.75866472611749e-19 -4.01681734456335e-21 1.55254575204745e-24 -5.47447060422009e-46)
(-0.000261633327012324 -1.35601688078089e-05 -1.09045328502679e-22 -4.03360303040534 0.000599956458089393 3.08953316104425e-19 4.01681734454873e-21 -1.5525457520418e-24 5.47447060420017e-46)
(0.000233358174830153 -1.38534125908133e-05 1.09108544835542e-22 -4.03077350398289 3.13316278805643e-05 -1.25931675654515e-19 -4.01736887429278e-21 1.01782165127216e-24 6.85638691612649e-46)
(0.000712188787929009 -1.40535299620625e-05 -3.68885460437911e-15 -4.01852906998845 -0.000522042060048602 4.02508316071671e-17 4.01736887429224e-21 -1.01782165127203e-24 -6.85638691612558e-46)
(0.0011729824313244 -1.41603308434911e-05 -1.8674411754744e-16 -3.99721592801465 -0.0010578182544203 1.81039706355807e-14 -2.30428930690514e-15 -6.10384001712416e-19 1.04654216450151e-29)
(0.00161395572743341 -1.41750758639074e-05 7.23533339857739e-15 -3.9672140817721 -0.00157374906087136 6.88155466885329e-16 -1.13567437836961e-16 -4.42116703361701e-20 1.35380337400354e-32)
(0.00203344819457404 -1.41002352900416e-05 1.8672873403477e-16 -3.92893528899618 -0.00206771983337515 -1.72462754996583e-14 2.15591693120515e-15 1.13437448465004e-18 9.45295110020795e-30)
(0.00242995373511772 -1.39394905040557e-05 -3.54646653295399e-15 -3.88282034715424 -0.00253778716606193 1.53983654163744e-17 -9.77362879386769e-22 -2.10113463021766e-26 1.72941600609988e-35)
(0.00280214526278507 -1.36976143711354e-05 3.12224579691962e-21 -3.82933587436238 -0.00298220913820071 -6.79234167280935e-24 0 0 0)
(0.00314889376411012 -1.33803340983734e-05 -3.18038394098718e-21 -3.76897069898497 -0.00339946950816478 -6.91881926759689e-24 0 0 0)
(0.00346928169944728 -1.29941668797388e-05 3.18050167790169e-21 -3.70223195759283 -0.00378829531436158 -3.26574658248066e-20 -9.19575579454595e-22 -2.84396371704946e-25 5.74140294148104e-46)
(0.00376260947143754 -1.25462336302726e-05 3.18038394098448e-21 -3.6296410172291 -0.00414766689817688 3.26863510909645e-20 9.19575579662366e-22 2.84396371917575e-25 -5.74138460642185e-46)
(0.00402839684962773 -1.20441005766384e-05 -3.18050167790429e-21 -3.55172936270456 -0.00447682124418627 -2.07572261922647e-23 0 0 0)
(0.00426637861824221 -1.14955822938929e-05 0 -3.46903449764363 -0.00477525023370124 0 0 0 0)
(0.00447649603797343 -1.09085993045811e-05 0 -3.38209602251876 -0.00504269115846494 1.96477407622992e-19 0 0 0)
(0.00465888300775695 -1.02909946298919e-05 0 -3.2914518827129 -0.00527911532631768 -1.96520397263746e-19 0 0 0)
(0.00481385245818807 -9.6504502934e-06 0 -3.19763498152511 -0.00548470955806998 0 0 0 0)
(0.00494187144952456 -8.99423561008575e-06 0 -3.10116996888234 -0.00565985708680936 -3.98232632064738e-19 0 0 0)
(0.00504355106126403 -8.32939263722398e-06 0 -3.00257077750623 -0.00580511166366383 3.98328801441699e-19 0 0 0)
(0.00511960624158638 -7.66210372955525e-06 0 -2.90233784470642 -0.00592118102454843 4.01649286814267e-19 0 0 0)
(0.00517086042099072 -6.99856827738983e-06 0 -2.80095709690048 -0.00600888092901545 -4.01749801061907e-19 0 0 0)
(0.00519817487514388 -6.34339897771321e-06 0 -2.69889711278559 -0.00606914571496467 -4.0496580631798e-19 0 0 0)
(0.00520250444984659 -5.70219133839786e-06 0 -2.59661058742453 -0.00610293522060647 4.05068763280886e-19 0 0 0)
(0.00518474009940499 -5.07715726416715e-06 -4.03779874212785e-15 -2.49452970405106 -0.00611132180440582 -1.31761448816062e-16 0 0 0)
(0.0051459060919047 -4.47434187008568e-06 -8.07753379287658e-15 -2.39307303723808 -0.00609526607852668 1.91824783407574e-14 -1.3826972580283e-15 -3.51900203161947e-18 1.09885191873811e-29)
(0.00508677610958858 -3.8917949079747e-06 2.02509359731958e-19 -2.29263429785058 -0.00605592775706571 3.9780796730948e-14 -2.64471821127834e-15 -6.98575637339694e-18 4.59060104452828e-29)
(0.00500844042417563 -3.3388898978846e-06 8.07753379283436e-15 -2.19360243244421 -0.00599407390205773 2.06703895250052e-14 -1.26274434695025e-15 -3.45315542939264e-18 1.2013594257994e-29)
(0.0049113361856387 -2.80516697262931e-06 4.03765088496883e-15 -2.09633102273935 -0.00591100276135483 1.58105341976246e-16 0 0 0)
(0.0047967479034872 -2.31037669418955e-06 -5.46549843121134e-20 -2.00119177852701 -0.00580695370695164 1.38768085942662e-18 7.93945548670352e-21 1.49167886725265e-23 2.13914869898993e-43)
(0.00466438035955661 -1.82506072546096e-06 -1.09648527894299e-19 -1.90849231146373 -0.00568366257363849 2.67748439296353e-19 -7.93945548661738e-21 -1.49167886723647e-23 -2.13914869896672e-43)
(0.00451614296963211 -1.39590135520705e-06 1.09653856396442e-19 -1.81861356669171 -0.00554015835769601 -1.39412121874264e-18 -7.2231613243253e-21 -1.51680985656776e-23 2.01831962940192e-43)
(0.00435019381427533 -9.49775839072212e-07 5.49962852644495e-20 -1.73179651912912 -0.00537949732212827 5.67622056711908e-19 7.22316132426008e-21 1.51680985655406e-23 -2.01831962938369e-43)
(0.00417018409529245 -5.98488008272497e-07 -5.49988720836216e-20 -1.64848662778062 -0.00519798043899053 -2.75190890264486e-21 0 0 0)
(0.00397097826439421 -1.68758535597735e-07 5.56383653438833e-20 -1.56879842537314 -0.00500224537269836 3.02598523584802e-21 0 0 0)
(0.00376060154046081 7.69734914359989e-08 -1.11430363073437e-19 -1.49335891842554 -0.00478239715387366 5.65256538141727e-19 5.95513094935119e-21 1.52960604915647e-23 4.35307235228836e-39)
(0.00352678098977145 5.38359212802281e-07 1.53501009961604e-22 -1.42200332333693 -0.00455401644944614 -1.14456672652258e-18 -1.1635091023951e-20 -3.05501164537996e-23 -8.69416805864636e-39)
(0.003287854269434 6.13003720593392e-07 5.53475040480861e-20 -1.35579336549797 -0.00429312193110745 5.7626512859236e-19 5.67996007461052e-21 1.52540559622635e-23 4.34109570636614e-39)
(0.00301610928082665 1.20499817858965e-06 2.92714089573435e-22 -1.29392079899378 -0.00403661817650876 -5.7598561149983e-19 -5.18810442216882e-21 -1.5112209566082e-23 1.34310652898773e-43)
(0.00275292407376875 9.5981272876373e-07 -2.80559290436012e-22 -1.23843008755907 -0.00372845411489114 5.76002818636613e-19 5.18810442226101e-21 1.51122095663505e-23 -1.34310652901159e-43)
(0.00243800554927418 1.88872388667385e-06 5.67797846331841e-20 -1.18705042955742 -0.00345511405261335 -5.75056359966262e-19 -4.78309128154637e-21 -1.48899575141469e-23 4.40838685181687e-39)
(0.00216074239363377 1.00158826609916e-06 -5.67698751485619e-20 -1.14396784356489 -0.00308702645973186 1.15535328516867e-18 9.39759444370197e-21 2.9701767868e-23 -4.38740418808603e-39)
(0.00179757791272511 2.69129197414908e-06 -5.62307869574339e-20 -1.10373260767137 -0.00282585587158647 -1.16598186637039e-18 -9.08875347382988e-21 -2.94136373916444e-23 -4.4292734364307e-39)
(0.00152435979167997 4.70178110350229e-07 1.13133293464551e-19 -1.07492912721712 -0.00237021284798708 5.89904738290059e-19 4.4742503117429e-21 1.4601827038014e-23 4.4082907727452e-39)
(0.00112876263070174 3.25934130569524e-06 -1.1365128001969e-19 -1.04580715874626 -0.00220131124920229 -8.53035555117373e-21 0 0 0)
(0.000899205160042282 -6.63123751473341e-06 -1.23137399086912e-22 -1.03252147264541 -0.00163043150439896 -5.85738506981703e-19 -4.1970862090756e-21 -1.48282284815824e-23 -4.45831334003796e-39)
(0.00118978544369445 -0.000294089122825039 1.141744246747e-19 -1.01287564881542 -0.00233500927116945 1.74966828874306e-18 9.2830913588427e-23 -2.29457858078139e-23 8.90825838150648e-39)
(0.012426469648374 -0.00188253407809503 5.76506439052298e-20 -0.991608183910377 -0.0130979130759357 -1.51152471363601e-17 1.26517601583615e-19 1.63389412258471e-21 1.86044460610979e-36)
(0.0805577135738518 0.00299068086872037 -1.44437658948028e-17 -0.972858746796007 -0.0810402399919042 -2.41083359990367e-18 -7.919624343647e-21 -9.60866331056261e-22 -2.28522976145552e-36)
(0.154333166662568 0.0208301895995627 2.39816828869859e-17 -0.961148444955402 -0.153829945113146 -1.48000669831908e-16 7.97201868647703e-21 9.67223193172275e-22 2.30034829566518e-36)
(0.227521895986449 0.0501555884489607 8.94379222706042e-17 -0.956574561953245 -0.226741867161571 -4.38770126104515e-16 0 0 0)
(0.290797529519735 0.0871909528344683 -4.29473437927805e-17 -0.92599457100372 -0.289271932402891 1.40598205835356e-16 -3.8325618494886e-18 -1.19593643012873e-18 5.81708959925937e-34)
(0.341958445629644 0.128672700278554 -1.6075950076237e-16 -0.880103117499429 -0.339975147372498 4.22067295191988e-16 0 0 0)
(0.370126416045054 0.166595593356272 2.87612781891692e-16 -0.801594202776872 -0.367568102199338 -6.93516311123536e-16 -3.43979422453501e-21 -1.630371656638e-21 -4.55779405778234e-36)
(0.371176529399871 0.193810933748983 1.17312363410315e-16 -0.695403505793355 -0.36818393385885 -2.7276968904943e-16 3.56894641830125e-21 1.6915863870446e-21 4.72892321925911e-36)
(0.334938785923743 0.198633617024885 -1.44797180924287e-17 -0.553177137014355 -0.331620063784096 2.71333746640726e-16 -5.07592291023905e-18 -3.04123306521793e-18 2.36708814151089e-33)
(0.250174162268876 0.1653865746431 -6.13691647301957e-16 -0.369909752070402 -0.246901664415344 1.03932220359341e-15 3.48306395637809e-18 2.32372226781755e-18 -9.71748281903014e-33)
(0.112032853000332 0.0845792226512665 -5.83107651782987e-17 -0.141387960689641 -0.109121834909742 -6.1015392881537e-18 0 0 0)
(-0.0813271275315991 -0.047900615561818 -3.64947487305106e-16 0.136557026397292 0.0833767378893412 5.02869378101536e-16 0 0 0)
(-0.326986632039005 -0.230175632550191 -5.18318593828822e-17 0.464030973249368 0.327858701885217 -5.86356556495611e-18 0 0 0)
(-0.621842845520579 -0.457137936518724 -4.85113552368527e-17 0.843695453387447 0.621048197306609 -2.92791864769644e-18 0 0 0)
(-0.954408467717875 -0.715351164476015 -1.83759237290346e-16 1.26919974813569 0.951832413630678 2.41996904363691e-16 -7.08303664167098e-21 -5.41587661467101e-21 4.69422104479996e-36)
(-1.30848529139727 -0.991825338115362 6.14940549516734e-16 1.71956217026675 1.30407616702219 -7.29256393303939e-16 7.30933371158135e-21 5.58890932237801e-21 -4.84419746334624e-36)
(-1.68427798917209 -1.29210855101578 3.23962239924728e-19 2.18584385022839 1.67799218596228 -3.52611901708897e-19 0 0 0)
(-2.10231113891757 -1.63563329371922 -2.79254338856566e-19 2.68870940816682 2.09357877478918 3.541663161864e-19 0 0 0)
(-2.56965134840977 -2.03271463215538 5.75107425225849e-16 3.23116432181223 2.5584507260156 -7.18141845850509e-16 0 0 0)
(-3.12781677801815 -2.52120489860009 5.79205593806626e-16 3.8574139787399 3.11261282703141 -7.09933131977612e-16 0 0 0)
(-3.80264289391284 -3.13064629698505 -6.21120293598393e-16 4.59037474854317 3.7831079830281 6.98467923515097e-16 4.72483687865409e-17 3.89378647722723e-17 7.20292339024918e-33)
(-4.70289156978572 -3.94996556378596 4.31250846009925e-16 5.56393942665108 4.6750143243252 -4.60424296295608e-16 0 0 0)
(-5.90399591235647 -4.97327342468802 -3.51090815677325e-16 6.96805586144222 5.86527911271454 4.55918434189075e-16 0 0 0)
(-7.38309682694974 -6.08928045680526 -3.73070937275178e-17 8.90609585460744 7.33080588806891 -7.56233247033256e-19 0 0 0)
(-9.12017936076306 -7.1694900815567 5.28359280696992e-16 11.5553324699022 9.05236149241496 -6.63404633737115e-16 -1.16817003361463e-16 -9.15145805543408e-17 6.70462753494889e-33)
(-11.032935901202 -7.99434304016823 2.76419229788653e-17 15.1936045618563 10.9477490095449 -1.53533528562524e-19 -2.67362426407859e-21 -1.77860133680432e-21 -1.21219762119163e-37)
(-12.710013574205 -8.07915923258311 -3.03468571106878e-16 20.0238235840295 12.6122512490742 4.34764653348761e-16 2.66421621081609e-21 1.77234272510101e-21 1.20793209295789e-37)
(-13.0549256570571 -6.71782118423525 2.90512540594057e-17 25.5878953599439 12.9622188467414 -1.09669962269763e-16 1.13737772415969e-16 5.76101713335145e-17 -4.89262049731203e-34)
(-10.070485493892 -3.63534930272692 2.92299767541791e-17 28.6240495674708 10.0259392205661 -4.77947197328663e-19 7.03099501022598e-21 1.96542875766224e-21 4.95910013057421e-38)
(-5.04128371882632 -1.10780258684241 7.12103937626539e-18 24.8233696351854 5.04554944620917 -4.88623620415804e-17 -5.00023287928879e-17 -1.01614604513364e-17 9.8470944831287e-35)
(-1.70931606463212 -0.204907252445435 -7.58343723582683e-19 18.3644769081499 1.71679398139479 -5.17932489317359e-17 1.82218159058331e-21 1.06126884560746e-22 -1.23866426548131e-38)
(-0.252941271674347 -0.0225284278395372 2.53940918180738e-18 12.0387341192107 0.267867417354466 -2.82467731109185e-20 -1.81986279796461e-21 -1.05991834224469e-22 1.23708801996841e-38)
(-0.0501577725773331 -0.00196541411118025 -6.21807469891111e-22 8.67503064874361 0.0470529002412087 2.70544285422217e-24 0 0 0)
(-0.0448194106362597 -0.00478371374745584 0 8.19960665573833 0.0516621590463451 0 0 0 0)
(0.0346404078313454 -0.0192055116913146 2.14077467761841e-22 7.75390079906368 -0.0424035785282627 2.01590789123274e-20 0 0 0)
(0.410699041664331 -0.0529892914198411 -8.50361528270647e-18 6.79686826300912 -0.406303152404177 -1.13996775412962e-19 0 0 0)
(0.521192282021117 -0.0888582121886455 -7.70758401802302e-19 3.83314427126682 -0.522639670067812 -5.02369914378721e-18 6.52382286697737e-18 -1.13438941537155e-18 -3.22515854538992e-34)
(0.165904819521818 -0.00245825383580189 8.20024333951916e-17 1.02166251169911 -0.158108995856551 2.09519646201398e-16 0 0 0)
(-0.59508297998216 0.355278889134396 1.20003623720312e-16 -0.988610463461585 0.603624035777324 3.07835420255329e-16 0 0 0)
(-0.824573462349657 0.539509534444908 3.66168219442485e-16 -1.29635055523143 0.831614618207656 5.71278864352822e-16 -1.31213855845082e-17 8.31768029004306e-18 -5.35759704448761e-33)
(-0.762673514500849 0.552475863949868 3.85840523337686e-17 -1.07619159476669 0.767391192609171 2.24671416701943e-19 0 0 0)
(-0.641246340650594 0.500404550263979 1.97740309471087e-16 -0.833832365442413 0.644126622480619 3.58529878094143e-16 -8.42348504822833e-18 6.50736647470106e-18 3.61288631073892e-33)
(-0.528880649951789 0.433171515696879 1.30324054255916e-16 -0.651936432028708 0.530888024566329 1.58236045009237e-16 -1.98873123454032e-17 1.63633324576748e-17 -1.27591061197796e-32)
(-0.445286249138228 0.373172361077422 3.7856562899089e-17 -0.533901675568848 0.446612034666215 -3.06775242446431e-19 8.02959231640399e-22 -6.91542871138628e-22 9.40670856069042e-38)
(-0.380178600025146 0.318262918899635 -1.031271243065e-16 -0.454574660450478 0.381140428992183 -1.77216455465443e-16 -4.60918267444237e-18 3.90206899532537e-18 1.83505114890865e-33)
(-0.334750529593032 0.275254397243467 9.71981505244713e-18 -0.406550497077368 0.335419205858764 1.70545979804388e-17 8.26789434234502e-18 -6.84425554014818e-18 -5.59257552964082e-33)
(-0.301690499684869 0.243347026883904 1.76873383248617e-16 -0.373378749614642 0.302211565831539 3.44390581893333e-16 -7.52637360034085e-18 6.10905898198584e-18 -5.58876499699204e-33)
(-0.275702537471774 0.218506998312111 -7.49440867615897e-16 -0.347233475396124 0.276057184290541 -9.30414571238855e-16 -3.44218063657965e-18 2.75231323504216e-18 -1.80671265880734e-33)
(-0.254547218226451 0.198833156511722 5.29432894204557e-16 -0.325365012412316 0.254828827103428 5.34738890920553e-16 -6.47036882318675e-18 5.08182831484342e-18 1.6921651837094e-35)
(-0.237167532492743 0.183058273477915 -3.68956238305574e-16 -0.306831568070561 0.237338864564652 -5.47031264233391e-16 6.07336541274616e-18 -4.7119553882458e-18 8.46808783074445e-36)
(-0.221718509930782 0.169595475124055 9.73802007277936e-17 -0.289561884925912 0.221849082474614 2.01430621677575e-16 4.10202325528386e-21 -3.15228450978202e-21 -5.30657620639131e-39)
(-0.207367502685011 0.157419297821743 2.81239930176076e-16 -0.272757824416501 0.207426717397028 3.66409532100908e-16 -1.46477485657161e-22 1.36369831583158e-22 1.05445915014737e-38)
(-0.191646935851512 0.143624746012778 -2.19617030922808e-19 -0.254844973798261 0.19164934139449 -2.06440313129871e-19 -3.70989034211597e-21 2.8278739669075e-21 -5.23467493449563e-39)
(-0.175062084334203 0.127947761946482 -3.60615618804702e-16 -0.237910895136973 0.174995193811153 -5.7581767106571e-16 -3.26992323804213e-21 2.38763140367368e-21 5.554838116908e-36)
(-0.157672642798736 0.110812567652976 2.84187721056368e-16 -0.221911524662114 0.157535640831622 3.92521220380057e-16 2.07915913198738e-18 -1.49560637309217e-18 -1.82153489476803e-33)
(-0.139766716131172 0.0929113226049154 -4.62763117668867e-16 -0.206855987437403 0.139559478096756 -5.82256706365954e-16 -2.88372727131997e-21 2.01995430090001e-21 5.26442450653056e-36)
(-0.121551564167205 0.0749086577459123 6.65259837710682e-17 -0.192636045948448 0.121270660230251 -7.06222383041278e-18 0 0 0)
(-0.103667504925269 0.0577722229887794 -3.10759317819805e-16 -0.17988621119274 0.103322983643139 -5.96181344861767e-16 3.18688982855864e-18 -1.84693175985665e-18 -1.89313912301025e-35)
(-0.0870176026577459 0.0426624347340575 -3.30264027789946e-16 -0.169475478819126 0.0866111580838021 -5.05412350562495e-16 1.4528029297819e-18 -7.49470551040533e-19 4.30107796681322e-37)
(-0.0725818203870751 0.0305051350518856 2.93963163609558e-14 -0.162433914062329 0.0721664659968798 5.58705324082748e-14 3.7725330310874e-21 -1.57361513284372e-21 -6.25712662759704e-34)
(-0.0594367776170217 0.0206771342245638 8.90877524723442e-15 -0.156588911048578 0.0589424580869712 2.32321012091312e-14 1.42805270353868e-16 -5.43114112179261e-17 -2.8741407776044e-29)
(-0.0486218315957905 0.0133095349861574 -7.66940592333303e-15 -0.15682501638758 0.0482313952990953 2.90945200708935e-15 -3.02112677576655e-18 9.36558789589934e-19 6.14580522719346e-32)
(-0.038603154414043 0.00754553939104655 9.72358265231966e-15 -0.158525459389028 0.0380316063796124 4.1206363600578e-14 -1.49930864501272e-16 3.60179247547144e-17 -6.16027489258122e-31)
(-0.0305270876231199 0.00347664716808503 4.37000737578017e-15 -0.176254748946691 0.0303067528957656 -5.56948538335263e-16 3.50264639809114e-21 -7.02794927903997e-22 6.70974588553926e-34)
(-0.0224019874802451 0.000438152011243927 -5.26612406012734e-15 -0.197402659405332 0.021681390728637 4.93396260984138e-16 4.77293715335745e-21 -2.9370350415161e-22 7.97568114028915e-34)
(-0.0167128247258362 -0.00050680002850994 -5.58099130257179e-15 -0.267776614806386 0.0166000175486384 -3.4858105803759e-14 -1.36032130945226e-16 4.50249760709932e-18 -1.04122699454468e-29)
(-0.0171892937674979 -3.03688274506711e-05 5.2753468144655e-15 -0.381170976349839 0.0164631350861056 -3.62473701135156e-14 -1.9615096810631e-16 3.33322433871093e-18 -8.63456552708774e-30)
(-0.0191821665808217 0.000174181399406406 5.18650566495411e-15 -0.49731153364906 0.018814325484968 6.69994959928399e-14 0 0 0)
(-0.0219559600444145 0.000170439489953453 1.99130545186551e-28 -0.637166401007567 0.0212957045356088 6.84814862995236e-14 0 0 0)