/*--------------------------------*- C++ -*----------------------------------*\
| =========                 |                                                 |
| \\      /  F ield         | OpenFOAM: The Open Source CFD Toolbox           |
|  \\    /   O peration     | Version:  3.0.1                                 |
|   \\  /    A nd           | Web:      www.OpenFOAM.org                      |
|    \\/     M anipulation  |                                                 |
\*---------------------------------------------------------------------------*/
FoamFile
{
    version     2.0;
    format      ascii;
    class       volVectorField;
    location    "30000";
    object      grad(p);
}
// * * * * * * * * * * * * * * * * * * * * * * * * * * * * * * * * * * * * * //

dimensions      [0 1 -2 0 0 0 0];

internalField   nonuniform List<vector> 
21000
(
(0.155579307261354 0.00807169605734817 0)
(0.107864580957907 0.00516159013293789 0)
(0.101942308406931 0.0175703915322526 -1.35798417658797e-19)
(0.208823095891397 0.00939415639429553 1.23844102224808e-19)
(0.205850467173956 -0.00861550708551196 1.17347709759342e-15)
(0.176182153016108 -0.029251767905854 0)
(0.0983198859237081 -0.0258669547110773 3.31228932315109e-19)
(0.055915870917868 -0.017571232706162 -7.80744098643426e-20)
(0.036853621413614 -0.0116544360591743 2.54023074122946e-15)
(0.0273540928896756 -0.00779741342040428 -2.48289298344234e-15)
(0.0226901771902024 -0.00560209441456672 2.93866203816016e-19)
(0.0195878020503571 -0.00401810060084876 -4.60784899609266e-15)
(0.0180001753157398 -0.00308369561340676 -5.36531638704e-19)
(0.0169629394791126 -0.00250207686382061 2.10450907974193e-15)
(0.0161709064758233 -0.00210235351231536 -2.01985664641122e-15)
(0.0155601071950503 -0.00180088289660752 0)
(0.0151111158490084 -0.00159905761363273 0)
(0.0147155767752643 -0.00144001855813646 -1.81357074687965e-15)
(0.014375868799402 -0.00134314734790935 1.75718030709386e-15)
(0.0139179242155895 -0.00120518560282579 1.66666594984638e-18)
(0.0134832850161211 -0.00105947250158468 1.61384300498189e-18)
(0.0130367937177559 -0.000899842794043636 1.59171970431956e-15)
(0.0125943887215096 -0.000736278441185874 3.00156170194395e-18)
(0.0121419639333164 -0.000564425044459616 -1.44344251057555e-18)
(0.0117047269541404 -0.000392674164721987 0)
(0.0113002569115644 -0.000233142742737468 -6.82963782871416e-16)
(0.0109793397684181 -0.00012946274878375 -6.61266036088314e-16)
(0.0105258411896565 -1.17691155401473e-05 2.49152771069135e-18)
(0.0102167194152602 3.9173847469991e-05 0)
(0.0095253451471158 0.000152298442657819 0)
(0.00922694410407582 0.000178452368163521 2.34514623104942e-18)
(0.00782355176385476 0.000380694947608384 1.47986467186824e-16)
(0.00736981256809045 0.000734711456015445 -8.65220037276201e-14)
(0.00771896289760227 0.000890479703320606 -8.80255309408056e-14)
(0.00725490910240813 0.00106991454366351 1.16887571373268e-18)
(0.0076212093315276 0.00122946281309558 -1.16887571373267e-18)
(0.00794247548960499 0.00137682434897481 1.17009004283336e-18)
(0.00885136536583378 0.00148505449561671 6.90612192114119e-22)
(0.00999245848640281 0.00155788767329991 7.79643972956094e-22)
(0.0116040354209248 0.00158802758734899 -2.34402598240944e-18)
(0.0135213558490517 0.00157991065731078 -1.05497997397259e-21)
(0.0157989563825024 0.00153559773639869 1.17352066337957e-18)
(0.0183365646241908 0.00146167434600973 0)
(0.0211148235366346 0.00136383002453685 -1.17783147420766e-18)
(0.0240612080695303 0.0012487658933237 -1.8773333788655e-21)
(0.0271367036840582 0.00112210849380031 2.36153490865476e-18)
(0.030288444440784 0.000989011730368491 8.8005138319898e-14)
(0.0334801779544729 0.00085350098021597 8.90719989371682e-14)
(0.0366749702900848 0.000718801384507506 -1.18680153554631e-18)
(0.039845073274814 0.000587251508425995 -1.19277187714251e-18)
(0.0429651066795392 0.000460547235592932 1.19277187715581e-18)
(0.0460148170063212 0.000339823199546762 -5.99857189486587e-19)
(0.0489761778843283 0.000225822867668225 -8.95082655986375e-14)
(0.0518339698099676 0.00011899011777166 -9.04600094765425e-14)
(0.054574527622541 1.95713910726242e-05 -6.03789956597787e-19)
(0.0571858062150439 -7.23245063611448e-05 0)
(0.0596568906518895 -0.000156674647889106 0)
(0.0619780195605312 -0.000233513128031327 8.90096800047157e-30)
(0.0641404410262345 -0.000302909415539896 -8.93678101638395e-30)
(0.0661364676302723 -0.000364956465785707 0)
(0.0679594968554401 -0.00041976300059749 0)
(0.0696041386605104 -0.000467453522400845 3.11671988174509e-19)
(0.0710663073575769 -0.000508173016162256 -3.11671988173375e-19)
(0.0723432712540441 -0.000542086606503154 3.14469308117321e-19)
(0.0734336620879744 -0.000569377030940784 -3.14469308117278e-19)
(0.0743374976736227 -0.000590247766736854 9.46089539723257e-14)
(0.0750561886498435 -0.000604924900639779 4.78908024423234e-15)
(0.0755925139944369 -0.000613655285596942 -9.09540374359144e-14)
(0.0759505667013761 -0.000616705536743104 8.00725572971429e-20)
(0.0761356771846195 -0.000614359884161806 0)
(0.0761543169820615 -0.000606917460107463 0)
(0.0760139851329628 -0.000594689114146689 8.15562400937024e-20)
(0.0757230803582385 -0.000577993763621866 -8.15562401031735e-20)
(0.0752907660572059 -0.000557154535646273 0)
(0.0747268270592138 -0.000532494877743946 0)
(0.0740415284564138 -0.000504334511523989 0)
(0.0732454714696221 -0.000472985755166834 0)
(0.0723494629724146 -0.000438749830668491 0)
(0.0713643745685495 -0.000401913543901836 0)
(0.0703010490592928 -0.000362746179768026 0)
(0.0691701464390859 -0.000321497265077816 0)
(0.0679821288544394 -0.000278392743560912 0)
(0.0667470451613521 -0.00023363575769761 0)
(0.0654746872031104 -0.000187399664229202 0)
(0.06417415873639 -0.000139835564998701 0)
(0.0628544575376381 -9.10546428023256e-05 1.03471706203736e-13)
(0.0615234198344512 -4.11552612785357e-05 2.0698182479759e-13)
(0.0601893752145992 9.82687632056894e-06 1.03455384779527e-13)
(0.0588584304532316 6.1836714265045e-05 0)
(0.0575388128876958 0.000114940689872385 -1.40020953625958e-18)
(0.0562339665022571 0.000169093665685092 1.40020953624439e-18)
(0.0549534702092945 0.000224525433480182 1.40888474017777e-18)
(0.053695964729901 0.000281109260075232 -1.40888474016505e-18)
(0.0524757492012682 0.000339382929025512 0)
(0.0512817167335331 0.000398903824377908 0)
(0.050140400095641 0.000460860116357058 -1.42508188316019e-18)
(0.0490197707952019 0.000523929202065928 2.85398844759438e-18)
(0.0479751303742434 0.000590749267858054 -1.42890656443686e-18)
(0.0469288861412269 0.000657786675662234 1.43631128314744e-18)
(0.0460007801678176 0.000731000419119263 -1.43631128317296e-18)
(0.0450150896141726 0.000801545117155567 1.44341263608839e-18)
(0.0442302703665551 0.000883124207944464 -2.89027626111596e-18)
(0.0432672931380113 0.000954265939344085 2.89710310437798e-18)
(0.0426643577330084 0.00104700031362903 -1.45023947937241e-18)
(0.0416643341942463 0.00110869382694119 0)
(0.0412808255348232 0.0012127573980377 1.46003994071979e-18)
(0.0404127262299543 0.00116696126519389 3.15313178221146e-21)
(0.0391387111279604 0.00131689657753658 -1.46212079273682e-18)
(0.0383834092509048 0.00249057854371912 2.93431148469627e-18)
(0.0388911350452938 0.00392284427259268 3.75495570532e-16)
(0.0408750428255011 0.00539799330706279 0)
(0.0426998749319231 0.00684528876753911 7.87857341836296e-16)
(0.0451904451043101 0.00839927775373231 0)
(0.0473315960665835 0.0098058846545363 8.42081633269157e-16)
(0.0493931103334324 0.0110788297600861 8.72497131063893e-16)
(0.0508133501202517 0.0119015555093637 1.82290461661255e-15)
(0.0508458330367862 0.0118487265709429 -3.80856080846451e-15)
(0.0487799964086159 0.010647925080766 0)
(0.0440105287986746 0.00809715374016648 -2.06782971511274e-15)
(0.0363577243940534 0.00420454878527229 0)
(0.0255553969801036 -0.00101948100780253 0)
(0.0120375063494644 -0.00713601735453531 2.29493684547183e-15)
(-0.00263804038594094 -0.0135220471867846 2.31486719123157e-18)
(-0.0181813205070378 -0.0204118408645052 0)
(-0.0368582054029443 -0.0288646027410553 0)
(-0.0583163015811769 -0.0388697642839887 0)
(-0.0872829450220095 -0.0526725893927519 0)
(-0.12484204924664 -0.0711294596604423 -6.58095335044751e-19)
(-0.184677903852077 -0.100362475938925 2.95109441408882e-15)
(-0.280091283681053 -0.142876427068235 -3.04025177848168e-15)
(-0.408786083329786 -0.194861624323183 0)
(-0.578246593217946 -0.255748041851812 2.5360197709033e-18)
(-0.797385193995072 -0.320864072470746 -8.85948294603209e-20)
(-1.04454548080807 -0.365440113208535 -2.80713880059982e-15)
(-1.21627253538301 -0.330441508699357 2.53955138064698e-15)
(-1.002072764115 -0.147743759933729 1.3359680033568e-19)
(-0.341061496667103 0.0352814408873248 -5.20001836134666e-16)
(0.0757908476259 0.0703600230048663 2.58877008604256e-16)
(0.284689209541953 0.0512904401220153 -6.33700718228989e-20)
(0.262771952145488 0.0202778927807539 0)
(0.154783482275418 0.0168658410570804 0)
(0.108401321149251 0.0120188123057085 0)
(0.103488201329843 0.0349325313018067 0)
(0.209574056254234 0.0206140574917135 5.48296786435747e-16)
(0.201780995555658 -0.0140887699054564 0)
(0.162304662262528 -0.0545260369625591 0)
(0.0840852092758784 -0.0493732402188525 2.4641126441144e-15)
(0.044990839810756 -0.0338247100697465 0)
(0.0290707139488924 -0.0223191562280803 -7.23367091435116e-20)
(0.022036271006036 -0.0147073485514571 4.810516809048e-15)
(0.0189700806722772 -0.010308003577856 -2.84652892265433e-19)
(0.0171258012807705 -0.00715268278067262 2.23234451451114e-15)
(0.0163234747443361 -0.00524949077087453 -2.12907888959069e-15)
(0.0157808827357109 -0.00405585050814767 2.03583954220988e-15)
(0.0153301211901307 -0.00323097445178608 1.95790649460379e-15)
(0.0149709049539085 -0.00260775146876726 1.8820305044222e-15)
(0.0146960691219611 -0.00217702790482443 -1.81763416871814e-15)
(0.0144336611815289 -0.00183852582147459 -1.7184583264295e-18)
(0.0141842287902806 -0.00162324326606108 -1.37535611048675e-21)
(0.0138348935302172 -0.00135078275434617 1.61497572757956e-18)
(0.0135071568638343 -0.00106765485662921 1.56385034478792e-18)
(0.0131639568808507 -0.000767012358941469 -1.54851806782064e-15)
(0.0128121887225016 -0.000465779834794705 1.45391454196284e-18)
(0.0124364603125238 -0.000155982308839635 0)
(0.0120537237528195 0.000150326363789221 -1.37714557583019e-15)
(0.011671818096283 0.000434338290289391 -6.62029085010086e-16)
(0.0113343950321796 0.000614791397674303 -2.49514927790034e-18)
(0.0108519454366243 0.000810234991149843 -7.00646373426535e-14)
(0.010487314773591 0.000885010229288413 1.1127739655719e-15)
(0.00974434332427626 0.0010604672957401 7.38039424834781e-14)
(0.00938030589819449 0.00109143839224468 -2.27244963963528e-18)
(0.00794813190743383 0.00142953156857259 -2.26008390124196e-18)
(0.00743377553631512 0.00208617764632171 8.52775525242501e-14)
(0.00775031890891698 0.0024589723680249 8.39780188766282e-14)
(0.00728634625001351 0.00275383612352274 0)
(0.00765557381528701 0.00309540961508322 0)
(0.00797522919738342 0.00338637661253909 0)
(0.00888210408342842 0.00364496279426124 0)
(0.0100194142937639 0.00383454423609264 -8.2622836084474e-30)
(0.0116271333614727 0.00396551955259571 1.13682983840172e-18)
(0.013540060160564 0.00402818471337789 -1.13682983841078e-18)
(0.0158135316933229 0.00403259335471748 1.13904993416937e-18)
(0.018347170625098 0.00398237418752803 -1.13904993418258e-18)
(0.0211219188428547 0.00388808576780149 0)
(0.0240651830969808 0.00375735330648031 0)
(0.0271379958603703 0.00359906682655161 0)
(0.0302874063370781 0.0034199584296555 -8.61930031750532e-14)
(0.0334771187450015 0.00322607498976207 -8.54965462730844e-14)
(0.0366701224750194 0.0030218261749485 0)
(0.0398386181976434 0.00281067454752568 0)
(0.0429571761539598 0.00259502670353081 7.45356227625535e-14)
(0.0460055121962497 0.00237663077859709 7.53846771765172e-14)
(0.048965578661589 0.00215667846779027 8.74334586336269e-14)
(0.0518221473764351 0.00193603631797971 8.70598519995349e-14)
(0.0545615521751891 0.00171535011573731 5.85434183661208e-19)
(0.0571717538616491 0.00149516605728782 0)
(0.0596418473135788 0.00127599088302158 0)
(0.0619620835220914 0.001058342765761 -8.63015549191653e-30)
(0.0641237239042633 0.000842773768701274 8.66487889457798e-30)
(0.0661190944818131 0.000629885053393194 0)
(0.067941605108134 0.000420328304643911 -6.0175278993252e-19)
(0.0695858757849203 0.000214795976600984 9.03944929408358e-19)
(0.0710478281898543 1.39995111308586e-05 -3.02192139473696e-19)
(0.0723247357615604 -0.000181336784440792 0)
(0.0734152326698066 -0.000370487602974419 0)
(0.0743193359862708 -0.000552747550581374 -9.18912064034048e-14)
(0.075038452867559 -0.000727447158667041 -4.36750401297352e-15)
(0.0755753563492634 -0.000893963186615714 8.80715451299685e-14)
(0.0759341311320481 -0.00105173011845204 -9.0589052243691e-30)
(0.0761200973115398 -0.00120024882631542 0)
(0.0761397143997422 -0.00133909315587317 0)
(0.076000468060086 -0.00146791438652521 9.1845925909088e-30)
(0.0757107426564138 -0.00158644337836802 0)
(0.0752796866028516 -0.00169449082449375 0)
(0.0747170694722043 -0.00179194567174245 0)
(0.0740331411518412 -0.00187877179937908 -3.21963624908532e-19)
(0.0732384879967315 -0.00195500346125372 3.21963624908531e-19)
(0.0723439026487573 -0.00202073957247547 0)
(0.0713602432949202 -0.00207613648851693 6.52131244549493e-19)
(0.0702983403649803 -0.00212140150676877 -6.52131244548341e-19)
(0.0691688426581132 -0.00215678344825323 -6.5740539474146e-19)
(0.0679822024522697 -0.00218256598642373 6.5740539474429e-19)
(0.0667484600223121 -0.00219905652279438 6.62500426660289e-19)
(0.0654774002209116 -0.00220658192912406 -6.62500426663042e-19)
(0.0641781209979191 -0.00220547223583253 0)
(0.0628596162330048 -0.00219606452432731 -9.96231286363765e-14)
(0.0615297188537545 -0.00217867405228099 -2.00637816451947e-13)
(0.0601967578839805 -0.00215361983954708 -1.0105341725417e-13)
(0.0588668385496785 -0.00212116224141178 4.4522667078779e-21)
(0.0575481915994162 -0.00208158339058122 -1.35322010857336e-18)
(0.0562442593885984 -0.00203504106373262 -1.36182655581533e-18)
(0.0549646301666469 -0.00198178293699408 1.36182655584096e-18)
(0.0537079385738494 -0.00192179617033012 0)
(0.0524885039282707 -0.00185534590404252 0)
(0.0512951988414559 -0.00178213743145391 0)
(0.0501545998966507 -0.0017026121785949 0)
(0.0490346204343579 -0.00161597599813189 0)
(0.0479906585652221 -0.00152324201555337 0)
(0.0469449771533262 -0.00142268708767243 0)
(0.0460175250508727 -0.00131673050795488 0)
(0.0450322687262742 -0.00120197260569498 0)
(0.0442480358036615 -0.00108357188320215 0)
(0.0432853033599045 -0.000956074596428767 0)
(0.0426824122227924 -0.000827660360344299 0)
(0.0416821089800747 -0.000698473007303174 0)
(0.0412875258282641 -0.000572292085570702 0)
(0.0404315798798128 -0.000633357602424204 -2.83729114761555e-18)
(0.039299454713559 -0.000442617048421893 2.55446945700506e-17)
(0.0386947087192381 0.00180904088921343 0)
(0.0390861651444865 0.0043480708332772 0)
(0.0407748776601194 0.0068958267639291 7.46154258513243e-16)
(0.0421761550753672 0.0093581297328293 -7.63839382344493e-16)
(0.0440690276076552 0.0119799893610704 -7.86850039976036e-16)
(0.0455021357157166 0.014339038093712 8.14787412403903e-16)
(0.0467601480019035 0.0164593943283378 0)
(0.0474142685399608 0.017790960421984 -1.7685931716748e-15)
(0.0470161302282324 0.0176195680466888 -1.18935670238259e-19)
(0.0451062619725243 0.0154985760823017 1.88237647582975e-18)
(0.0412701383539523 0.0111016406947091 -3.91359363198695e-18)
(0.0353983962425872 0.00442371144615581 4.0641151699902e-18)
(0.027249186840762 -0.00451399111926208 -2.10347095424269e-18)
(0.017020297095227 -0.0149724388365451 -2.22566304474328e-15)
(0.00589522112320604 -0.0259662077217892 2.29630096712184e-15)
(-0.00567316491642816 -0.0380451837329733 1.15743594754933e-18)
(-0.0192236911531503 -0.0530841065728963 -1.2001019252905e-18)
(-0.0342716425628935 -0.0712351405374943 2.54486501830196e-15)
(-0.0539812425991441 -0.0965927127372306 2.6423976926075e-15)
(-0.0785465266157368 -0.131149924250425 -2.74829915313091e-15)
(-0.117084712337849 -0.186304186330614 0)
(-0.181346452229154 -0.266906556881331 0)
(-0.273406189595329 -0.36674369780156 0)
(-0.404390399324032 -0.485249368666451 2.97489886842828e-15)
(-0.590723936432463 -0.612821959990972 4.49947510079136e-20)
(-0.831119919789909 -0.699423439109205 0)
(-1.05056737615821 -0.627791388921944 -1.22985882992598e-15)
(-0.938497874197563 -0.26882166290176 0)
(-0.338165319765108 0.0841914638382009 5.04140465058186e-16)
(0.0705324569005464 0.147629084505561 -1.83865023871488e-19)
(0.281649943468185 0.106237425877877 6.14714697226204e-20)
(0.260556388525723 0.0450138089525287 0)
(0.153892057595234 0.0198566946563221 0)
(0.108906035454076 0.0151283665622494 -6.33029586711809e-20)
(0.103754945371068 0.0352887166146143 -6.43000325325129e-20)
(0.209180009166599 0.0248114358186857 -1.8549682842985e-21)
(0.202420671587438 -0.00627958221815687 1.33789867117132e-19)
(0.166244019709535 -0.0447898440520982 -1.15785636724827e-15)
(0.0884327819982185 -0.0434924352243877 -2.38664775799153e-15)
(0.0478500125677246 -0.0311254380711181 -7.32555720926195e-20)
(0.0308122156849083 -0.0209930200815163 -2.09098577651645e-19)
(0.0230832179631788 -0.0140054115620805 -2.3300000389255e-15)
(0.0196562919021568 -0.00986248981854275 0)
(0.0175664029460327 -0.00688390521436377 -2.16230350340523e-15)
(0.0166167462239395 -0.00505764416674187 5.4706913704984e-19)
(0.0159811285786758 -0.00391832112564575 -3.09629026829001e-20)
(0.0154729342016476 -0.00313247164786716 1.895003907504e-15)
(0.0150668280774337 -0.00254589846818067 -1.82434972688881e-15)
(0.0147619822328132 -0.00213707330310035 1.76112367698982e-15)
(0.0144727066180385 -0.00181996689854442 -1.7026460429811e-15)
(0.0142090547336358 -0.00161899094297666 -3.22849432312302e-18)
(0.0138448938926726 -0.00137053823128144 1.56486922488212e-18)
(0.0135032579993406 -0.00110922075208515 1.55117207873381e-15)
(0.0131469511148969 -0.00082984774861976 -1.46311444437327e-18)
(0.0127847242690091 -0.000547916176497684 1.4461886616571e-15)
(0.0124017382926539 -0.000255653575434669 1.35778652412603e-18)
(0.0120150078067204 3.64321725157367e-05 1.32958990521773e-15)
(0.0116300640655351 0.000312761210482043 6.41724309329516e-16)
(0.0112968808297603 0.000495195597399094 -1.07800271768412e-13)
(0.0108191853422824 0.000695800369006204 -3.98459937019062e-14)
(0.0104661938009254 0.000785696125221874 -3.7436665518488e-15)
(0.00973374944170855 0.000982579818452354 -7.02298416029764e-14)
(0.00938941855233527 0.00104878039980635 2.7990970883699e-16)
(0.00799655214875504 0.00145124028259616 0)
(0.00748827973358046 0.0020586969731393 -1.75491750107096e-17)
(0.00778625734545315 0.00246488266736085 0)
(0.00731882654921065 0.00273955529600006 -1.06550169954965e-13)
(0.00769104494446488 0.00306402891884896 -1.08329816095196e-13)
(0.00800745165227407 0.00332082509554388 -1.10004236895333e-18)
(0.00891173371676134 0.00354397071436376 2.20073810782083e-18)
(0.0100441572202138 0.00369141817382965 7.36394359001214e-22)
(0.0116474741860697 0.00377994308404418 -2.20371820911681e-18)
(0.0135554329004341 0.00379982964761659 -9.93825962124247e-22)
(0.0158245444046526 0.00376427828687712 1.10327990183284e-18)
(0.0183540809705472 0.00367762493784632 -1.10578573146369e-18)
(0.0211253826348863 0.00355170908832853 1.10578573146159e-18)
(0.0240656716269046 0.00339433696486637 0)
(0.0271360394114694 0.00321457892977805 0)
(0.0302833940511332 0.00301888860724807 0)
(0.0334713909518727 0.00281302523599453 0)
(0.0366629181967146 0.00260098249470653 -1.1184506360316e-18)
(0.0398301213240754 0.00238585715990969 1.11845063601055e-18)
(0.0429475121065763 0.00216969795065363 -7.28900768651984e-14)
(0.0459947748077292 0.00195396091768853 -7.24698996626859e-14)
(0.0489538380471175 0.00173958409125051 0)
(0.0518094652527194 0.0015272284066887 0)
(0.0545479887612623 0.00131736099604568 0)
(0.0571573754466769 0.00111037149721361 0)
(0.0596267296387422 0.00090661785681046 0)
(0.0619463143933067 0.000706471894164876 -5.76191087056481e-19)
(0.0641074038379962 0.000510334514447623 5.76191087061482e-19)
(0.0661023366310337 0.000318647437791393 0)
(0.0679245338409481 0.000131889118224946 5.83454262910418e-19)
(0.0695686241785032 -4.94368947308371e-05 -2.90452013475998e-19)
(0.0710305358895344 -0.000224826122318696 -2.93002249434406e-19)
(0.0723075471296678 -0.00039375966377877 0)
(0.0733982937619078 -0.000555722567560054 -2.96974793870868e-19)
(0.0743027915603461 -0.000710231103742485 4.46143135890979e-19)
(0.0750224439801819 -0.000856834853630559 -1.49168342021083e-19)
(0.0755600181152474 -0.000995126801655793 0)
(0.0759195906097557 -0.00112475096001345 -3.78110278503785e-20)
(0.0761064717022988 -0.00124540797608796 3.78110278503785e-20)
(0.0761271095528175 -0.00135685894316437 3.81598125555362e-20)
(0.0759889773141267 -0.00145892741608634 -3.81598125555354e-20)
(0.0757004460176099 -0.00155149966920455 0)
(0.0752706502528158 -0.00163452355397207 -1.54719217117878e-19)
(0.0747093455938491 -0.0017080058868582 4.6552699322057e-19)
(0.074026768053269 -0.00177200880953796 1.3568309570759e-21)
(0.0732334904862785 -0.00182664509186912 1.34229103335976e-21)
(0.0723402926933779 -0.00187207282497009 -3.13506898093618e-19)
(0.0713580207884411 -0.00190848898664354 0)
(0.0702974942149253 -0.00193612399824144 0)
(0.0691693517808231 -0.00195523299763698 6.37394021192032e-19)
(0.0679840372544406 -0.00196609207293819 2.49214841494767e-21)
(0.0667515832555833 -0.00196898574169942 -6.39886169604261e-19)
(0.0654817691100231 -0.00196420947967399 0)
(0.0641836873181883 -0.00195204578726838 0)
(0.0628663298532558 -0.00193278584676213 0)
(0.0615375254512594 -0.001906674238531 0)
(0.0602056062134873 -0.00187398348343848 0)
(0.0588766719626404 -0.00183487260489159 -1.31202414537355e-18)
(0.0575589649086941 -0.00178960291482244 -4.21997542235897e-21)
(0.056255914789257 -0.00173817065305996 1.31624412078277e-18)
(0.0549771381790397 -0.00168088582887298 1.32439924921237e-18)
(0.05372123560733 -0.00161743239658113 -2.65273710803876e-18)
(0.0525025916591298 -0.00154835491018743 2.66052498161625e-18)
(0.0513099905934745 -0.00147270980820151 -2.66813607300874e-18)
(0.0501701582037025 -0.00139174825964811 1.33594895028733e-18)
(0.0490507906739921 -0.0013032012496909 1.34322340295185e-18)
(0.0480076246758962 -0.00121014699780314 3.51971229050911e-21)
(0.0469624147740433 -0.00110744954578687 -1.34674311522921e-18)
(0.0460358624801117 -0.00100252486230114 0)
(0.0450508065877278 -0.000884052610853045 0)
(0.044267656364524 -0.000769068509694124 0)
(0.0433045920477478 -0.000633560930624857 0)
(0.0427027234102864 -0.000514341145552022 -2.7328309588803e-18)
(0.0417008790119436 -0.000366152564887181 1.34820569198369e-13)
(0.0412975261564447 -0.000264101937479428 1.32969337354724e-13)
(0.0404420834557151 -0.000241082140307681 -2.74500113009628e-18)
(0.0394202182154012 -0.000306774474598204 -2.47725815959294e-17)
(0.0389320890842559 0.0017862663476841 2.7528441186409e-18)
(0.0393777575945439 0.00402454026757235 -2.78257431354894e-18)
(0.0411282062812276 0.00639249302368817 -7.20617825774571e-16)
(0.0426284972120157 0.00866755141252579 2.89637904065657e-18)
(0.044632569035653 0.0111215711227078 7.6283256168146e-16)
(0.0461759956646663 0.0133214983225921 -1.57974672634319e-15)
(0.0475359553650522 0.0152844517606295 -3.20497641477287e-18)
(0.0482296971013176 0.0164850403295269 3.35284726561013e-18)
(0.0477734839939057 0.016249035498232 -5.34736490651049e-18)
(0.0456950702286988 0.0141596074452057 1.81998241189323e-18)
(0.0415636752088781 0.00993178027443028 -1.94012162262476e-15)
(0.0352813203031999 0.00356259777970347 -2.01857022763301e-15)
(0.0266103489512446 -0.00488266329143631 2.08842350978699e-15)
(0.0158312512252926 -0.0147147141246043 2.15656470037643e-15)
(0.0041443006913384 -0.0250520379258556 -4.44751916508578e-15)
(-0.00811154064607339 -0.0364674248744447 -1.12460298702211e-18)
(-0.0225891338054719 -0.0506709084014728 -2.37953763455091e-15)
(-0.0388356544334079 -0.0678942828379992 -4.93049868901115e-15)
(-0.060383144136224 -0.0918945830855293 -2.5599414625813e-15)
(-0.0876561415453387 -0.124750546705038 0)
(-0.130862821777788 -0.17665559556448 -6.7051314006706e-19)
(-0.201683166321916 -0.251454059263714 3.55935900982612e-19)
(-0.301697156139242 -0.342758107386226 3.56241591100595e-19)
(-0.44199647898248 -0.449002772623248 2.8725999221077e-15)
(-0.637578975804905 -0.558472203133779 1.26290193096729e-19)
(-0.881604961020765 -0.620823845648158 -2.61998586011312e-15)
(-1.08865261635438 -0.528487591639536 -1.18684029456762e-15)
(-0.949129568678949 -0.181757051569078 -1.05201892427963e-15)
(-0.335149194090536 0.124376770405276 4.88924123958936e-16)
(0.0701987490545046 0.15592038160588 1.18653940254889e-19)
(0.278974977414383 0.106741591715038 3.06610252964336e-17)
(0.25822324831808 0.0486910373502223 0)
(0.153014171486312 0.0236961206900769 0)
(0.109282598974594 0.0174190631100335 -1.22767203452751e-19)
(0.103880139204289 0.0348437684215993 -2.51368569196915e-16)
(0.207888211946828 0.02400482301176 0)
(0.201134744413923 -0.00437410809201122 0)
(0.167461468169761 -0.0403872041450432 2.2440670404099e-15)
(0.0912535137622957 -0.0398149733217551 2.31257940808774e-15)
(0.0499221280607469 -0.0293555318310879 0)
(0.0320854091756117 -0.0201934404708065 -2.30881939017815e-15)
(0.0238438591534173 -0.0136221367389503 -2.75702807027481e-19)
(0.0201332238857563 -0.00965194057444687 2.66283270750705e-19)
(0.0178722630279493 -0.00676863884813208 2.09402648211508e-15)
(0.0168114526225048 -0.00498230381111266 1.99894632058313e-15)
(0.0161155270181164 -0.00386059876748628 -1.91256792707169e-15)
(0.0155729271903418 -0.00308648258321025 -1.83592609388374e-15)
(0.0151407342708292 -0.00251111884126648 0)
(0.014818652898992 -0.00210849460715963 1.66704556256517e-18)
(0.0145169758259985 -0.00179440788225512 -3.21781641302118e-18)
(0.0142495888894216 -0.00159381638712668 -1.29567337040181e-21)
(0.0138842419256287 -0.00135082134062067 1.51629862539834e-18)
(0.0135394763899323 -0.00109605019342819 -1.50161656033033e-15)
(0.0131800232099749 -0.000822420544829667 1.44991000203957e-15)
(0.0128150831560149 -0.000545144785322406 -1.39604390571361e-15)
(0.0124295458648821 -0.000257311665632793 -1.34872938390129e-15)
(0.0120394339275472 3.06436165689068e-05 2.5277622490002e-18)
(0.0116474175865506 0.000303990067870078 1.66115880198809e-21)
(0.0113122539284511 0.00049105891394375 1.06688094127813e-13)
(0.0108301675259995 0.000692778417806355 1.0367557345965e-13)
(0.0104804425019885 0.000796839168339858 -5.63953814220685e-16)
(0.00974619125598646 0.000993183461454538 -2.16594667341987e-18)
(0.00941467513126465 0.00109175080684347 -2.73534353700816e-16)
(0.0080425301272287 0.00149011529953137 -1.35961253011931e-16)
(0.00753759891833848 0.0020105963345589 -1.91438028507313e-17)
(0.00782085818872272 0.00239372845178205 2.12884070360917e-18)
(0.00734830268081431 0.00265182426779156 1.05004033634118e-13)
(0.00772214878193871 0.00292518041288865 1.03341160282089e-13)
(0.00803483359039915 0.00313778174532709 0)
(0.00893610880012707 0.00330360626879024 2.13450668650838e-18)
(0.0100637428172889 0.00339972196189986 -2.13450668651943e-18)
(0.011662885521104 0.00343531812675597 0)
(0.0135664349796747 0.00340984029580144 0)
(0.0158318370336686 0.00333409906829173 0)
(0.0183580464233978 0.00321597794869231 0)
(0.0211266665847605 0.00306603955178348 0)
(0.0240647270141313 0.00289271203789951 0)
(0.0271333205688457 0.00270383497052918 0)
(0.0302792142990121 0.00250530835341044 0)
(0.0334660030917874 0.00230177597981179 -1.0818618893551e-18)
(0.0366564850846651 0.00209646965948025 1.08186188936472e-18)
(0.0398227578973977 0.00189165834882634 0)
(0.0429392886300099 0.00168879742228054 0)
(0.0459857402788285 0.00148882041191043 -1.09361709293045e-18)
(0.0489440281740272 0.00129229197303802 -3.47842899342875e-21)
(0.051798914646118 0.0010995716117018 1.09709552191251e-18)
(0.0545367362675642 0.000910904917365726 -5.52326373241502e-19)
(0.0571454694345094 0.000726499436564448 5.52326373235709e-19)
(0.0596142300248752 0.000546562730587674 0)
(0.0619332940005059 0.000371328070231842 0)
(0.0640939482683655 0.00020106365630903 0)
(0.0660885434152996 3.60749378166347e-05 0)
(0.067910510505022 -0.000123305435682561 5.65715374718449e-19)
(0.0695544853104044 -0.000276735076020895 -5.65715374719481e-19)
(0.0710164021370171 -0.000423883660258764 0)
(0.0722935442261406 -0.000564399232691485 0)
(0.0733845482791317 -0.000697941997355856 2.87943582351672e-19)
(0.0742894283436011 -0.000824212353557276 -2.87943582351188e-19)
(0.0750095847486535 -0.000942938263829059 0)
(0.0755477792840174 -0.00105388641993477 0)
(0.0759080815316363 -0.00115686633528786 0)
(0.0760957931390349 -0.00125173322486446 0)
(0.0761173524182355 -0.00133838943656501 0)
(0.0759802217024714 -0.00141678444211116 0)
(0.075692760511412 -0.0014869136888048 0)
(0.0752640915145016 -0.00154881650572778 0)
(0.0747039582212459 -0.00160257299813612 -3.01351009677192e-19)
(0.0740225846829925 -0.00164830043341553 6.04017206898962e-19)
(0.0732305321247345 -0.00168614902724415 -3.02666197221165e-19)
(0.0723385692628021 -0.00171629707415762 0)
(0.0713575317953381 -0.00173894630483173 -6.13040831187108e-19)
(0.0702982296740373 -0.00175431658253909 6.13040831185996e-19)
(0.0691712930798254 -0.00176264025600495 0)
(0.0679871584035005 -0.00176415771026989 0)
(0.0667558516770355 -0.00175911022898781 0)
(0.065487147421823 -0.00174773795757754 0)
(0.0641901335009941 -0.00173026792485298 -6.27392960452187e-19)
(0.0628738002165218 -0.00170692071226809 6.27392960458635e-19)
(0.0615459728371817 -0.00167788353632192 1.26362837546832e-18)
(0.0602149861523103 -0.0016433431956206 4.27945065997364e-21)
(0.0588869355469573 -0.00160341417221504 -1.26790782614148e-18)
(0.0575700733420635 -0.00155824813014254 -1.27618437082669e-18)
(0.0562678185489915 -0.00150783517464402 1.27618437081297e-18)
(0.0549898129614223 -0.00145232301768345 1.28409139822366e-18)