/*--------------------------------*- C++ -*----------------------------------*\
| =========                 |                                                 |
| \\      /  F ield         | OpenFOAM: The Open Source CFD Toolbox           |
|  \\    /   O peration     | Version:  3.0.1                                 |
|   \\  /    A nd           | Web:      www.OpenFOAM.org                      |
|    \\/     M anipulation  |                                                 |
\*---------------------------------------------------------------------------*/
FoamFile
{
    version     2.0;
    format      ascii;
    class       volVectorField;
    location    "30000";
    object      grad(k);
}
// * * * * * * * * * * * * * * * * * * * * * * * * * * * * * * * * * * * * * //

dimensions      [0 1 -2 0 0 0 0];

internalField   nonuniform List<vector> 
21000
(
(-9.05528679554454e-06 0.000965356594535804 0)
(-4.37006757599134e-07 0.00089592768996253 0)
(3.00767726100185e-05 0.000686127397289941 -3.10793399014318e-25)
(1.18630312222001e-05 0.00019203565002912 -3.8714662390237e-22)
(3.17023059932622e-06 2.12043978311543e-05 1.2043996126945e-30)
(2.73278621095327e-05 4.83627896804618e-05 0)
(3.15211529094038e-05 4.9691410577058e-05 -4.66925319736061e-22)
(2.23230813488562e-05 3.23338406063289e-05 -2.03110445114388e-26)
(1.50862186252463e-05 2.01786884535973e-05 2.04087150303021e-22)
(1.0370303505705e-05 1.30893247305169e-05 -1.34911582065624e-22)
(7.61374321213274e-06 9.28667863800479e-06 1.21660507021552e-26)
(5.77395045617968e-06 6.98907364370026e-06 -7.25929050528503e-23)
(4.69813369440496e-06 5.74189908133384e-06 -2.65421257602038e-26)
(3.98892197994247e-06 4.95265309534568e-06 3.9916194194094e-26)
(3.4675424376413e-06 4.37427471673065e-06 -4.43605531131993e-23)
(3.07220200179492e-06 3.92818761292467e-06 0)
(2.76815785736169e-06 3.58009575747038e-06 0)
(2.50503850286574e-06 3.27197266731736e-06 5.13880692391657e-26)
(2.26087049228253e-06 2.981094605521e-06 -9.56017457162434e-26)
(1.98453658764826e-06 2.65533732044582e-06 4.43831605651295e-26)
(1.70669481326969e-06 2.34215181625182e-06 3.42802095941287e-26)
(1.43118392524463e-06 2.04263656918492e-06 1.98182399738044e-23)
(1.16898074356933e-06 1.76288080642643e-06 5.14156795826489e-26)
(9.27769146091796e-07 1.50560853164279e-06 -2.27702535472362e-26)
(7.21008243709285e-07 1.28558354528317e-06 0)
(5.57945171987338e-07 1.11674097603151e-06 -6.67968718040126e-31)
(4.38725579816102e-07 1.00843950385325e-06 -2.06408105339256e-26)
(3.42024662374043e-07 9.22710170770485e-07 1.99798327212384e-26)
(2.76815445816803e-07 9.10573084655527e-07 0)
(2.20550174270104e-07 9.06557627139712e-07 0)
(1.88157862641249e-07 1.06923848190502e-06 1.89428546406911e-26)
(1.70840469013551e-07 1.24299339345151e-06 -4.08762935922472e-27)
(2.43783443809693e-07 2.11860893596151e-06 -1.21300952328562e-21)
(3.76481767743193e-07 4.26095288832936e-06 -2.49314403852723e-21)
(5.78286842324139e-07 7.19809922697535e-06 1.06370360872249e-25)
(8.55614042440275e-07 1.19160547009306e-05 -1.06370360872248e-25)
(1.19159788544547e-06 1.83666411544841e-05 2.66100465642817e-25)
(1.5923789106012e-06 2.73438228580892e-05 1.24242559726607e-25)
(2.02789417719496e-06 3.88634848326653e-05 1.58222871297799e-25)
(2.48912409398252e-06 5.33617199988057e-05 -1.29134131649019e-24)
(2.94279977511523e-06 7.07387308616146e-05 -2.29606769085606e-25)
(3.37359801868671e-06 9.10307254344093e-05 9.72382188898003e-25)
(3.75682043438193e-06 0.000113946168296092 0)
(4.08196681643536e-06 0.000139221533426602 -1.84720880037115e-24)
(4.33744595757776e-06 0.000166432482657013 -3.38421580980332e-25)
(4.52096315765297e-06 0.000195172500270418 4.72400094992991e-24)
(4.63118485504893e-06 0.000224984654793059 1.28784805382119e-19)
(4.67145706244456e-06 0.00025544307979711 1.48499661608734e-19)
(4.6455799935261e-06 0.0002861273477224 -3.26419281884556e-24)
(4.55901774724568e-06 0.000316654341761113 -3.98236534477135e-24)
(4.41704136116654e-06 0.000346666187329815 3.98236534481576e-24)
(4.2252146554726e-06 0.000375840219812663 -2.32833107413673e-24)
(3.98874273890931e-06 0.000403882339277846 -2.31608180962601e-19)
(3.71276202870174e-06 0.000430529320078906 -2.49676639963946e-19)
(3.40219082949313e-06 0.000455545527185534 -2.62877924630158e-24)
(3.06191678106858e-06 0.000478723546639569 0)
(2.69679025454314e-06 0.0004998831644998 0)
(2.31171214147121e-06 0.000518872013855438 2.91191837539398e-35)
(1.91162671427118e-06 0.000535565660902497 -3.00551237566638e-35)
(1.50153666294771e-06 0.000549868256020021 0)
(1.08647352272137e-06 0.000561712899687114 0)
(6.7144818017409e-07 0.000571062127339453 1.6390383714857e-24)
(2.61339607758363e-07 0.000577907821793415 -1.63903837147973e-24)
(-1.39178682917513e-07 0.00058227188323584 1.64142121923027e-24)
(-5.25646049850315e-07 0.000584199264529026 -1.64142121923005e-24)
(-8.93963549557824e-07 0.000583762999957318 3.36187499398314e-19)
(-1.24049679255115e-06 0.000581060450096101 1.7080673026842e-20)
(-1.56207391460647e-06 0.000576210437174024 -3.16303407419692e-19)
(-1.85605324901822e-06 0.00056935045232943 3.89766043490386e-25)
(-2.12035372550233e-06 0.000560633603380984 0)
(-2.35346936716109e-06 0.000550225394776489 0)
(-2.55446809668695e-06 0.000538300429075965 3.46441960543212e-25)
(-2.72297476345637e-06 0.000525039121386877 -3.46441960573412e-25)
(-2.85914116547254e-06 0.000510624520295719 0)
(-2.96360425891949e-06 0.000495239296580353 0)
(-3.03743558369498e-06 0.000479062980787569 0)
(-3.08208327218015e-06 0.00046226947796667 0)
(-3.09931223278131e-06 0.000445024925129641 0)
(-3.09113713509513e-06 0.000427485855332039 0)
(-3.05976613637824e-06 0.000409797798135178 0)
(-3.00752977848667e-06 0.000392094068068994 0)
(-2.93683978026375e-06 0.000374495172770755 0)
(-2.85011168275192e-06 0.000357108069123882 0)
(-2.74975997518525e-06 0.000340026464813932 0)
(-2.63809101151829e-06 0.000323330130925169 0)
(-2.51737514867359e-06 0.000307086458009589 1.77745837267446e-19)
(-2.38965339414122e-06 0.000291348940963356 3.36110281565477e-19)
(-2.25697507138753e-06 0.000276161002312609 1.5870655325468e-19)
(-2.12098380245118e-06 0.000261551730543461 0)
(-1.98351588382346e-06 0.000247544549227147 -1.69135353839022e-24)
(-1.84567440990844e-06 0.000234146020513672 1.69135353837187e-24)
(-1.70920844163283e-06 0.00022136533234653 1.41399006538386e-24)
(-1.5744570261688e-06 0.000209187090140229 -1.41399006537109e-24)
(-1.44339829514589e-06 0.000197614830129605 0)
(-1.31518159974631e-06 0.000186608317760507 0)
(-1.19267173628557e-06 0.000176179342982148 -9.82856380215358e-25)
(-1.07295279895384e-06 0.000166252627516675 1.88199750816218e-24)
(-9.61097772339898e-07 0.000156873045589287 -8.99141127948512e-25)
(-8.50352176524785e-07 0.000147905203353933 7.5780593631759e-25)
(-7.50584298816589e-07 0.000139473823928185 -7.57805936331056e-25)
(-6.47749180433002e-07 0.000131329286054782 6.48703429593748e-25)
(-5.61272229246362e-07 0.000123765054760123 -1.25361458211016e-24)
(-4.63980866086345e-07 0.000116311568344429 1.17362101519374e-24)
(-3.91926047338713e-07 0.000109586278737831 -5.68709862686139e-25)
(-3.01100243126876e-07 0.00010270778637665 0)
(-2.49425992393575e-07 9.6725558204544e-05 4.95176683323216e-25)
(-3.08926159384999e-07 8.99811689615487e-05 -2.41034194518508e-26)
(-1.19433485317118e-06 8.28588771322283e-05 -1.07010159482437e-23)
(-6.6559843946487e-06 8.01744683382054e-05 8.91524192925584e-25)
(-1.31039722566752e-05 8.23895483702581e-05 -8.97422011470376e-25)
(-2.08048824704941e-05 8.80300864066032e-05 0)
(-2.94556287234226e-05 9.40094560957829e-05 3.89062106952473e-22)
(-3.91101546514934e-05 0.000100670421843118 0)
(-4.9237490065307e-05 0.000106626482845465 4.11384724868814e-25)
(-5.97265936729536e-05 0.000112262045604728 -4.26829440709638e-25)
(-7.06432350124488e-05 0.000118126744836701 1.0834343532383e-21)
(-8.15972326741196e-05 0.000125018746176941 -1.17528852890133e-21)
(-9.26587251231481e-05 0.0001337595924454 0)
(-0.000105559533728861 0.00014739292623799 -1.56424534493735e-30)
(-0.000126128371809344 0.000172795660916277 0)
(-0.000154074636788624 0.000208711347676403 0)
(-0.000190769978737658 0.000257476560391064 -1.58861933919237e-24)
(-0.000236700177108422 0.000318118254769631 1.63937617862282e-24)
(-0.000293868421921576 0.00039140023297354 0)
(-0.000367965931417979 0.000483616958966495 0)
(-0.000463293665596867 0.000599387813556464 0)
(-0.000594621629439623 0.000755436806340667 0)
(-0.00077630208975511 0.000968841895117463 9.96660917625496e-21)
(-0.0010616993361015 0.00130642671042065 2.28009324508978e-30)
(-0.0015224300218802 0.00187592158460239 -2.38055808184444e-30)
(-0.00220763465257626 0.00278494460901486 0)
(-0.00317936516645489 0.00421949685902863 -4.26765594166308e-20)
(-0.00449848712443171 0.00649267538727705 -3.82828479150686e-24)
(-0.00602909665595068 0.00991100357467452 3.81481112518576e-24)
(-0.00703020099390242 0.0140575912742977 6.25079539877989e-20)
(-0.00552984346729609 0.0151748675656556 1.0554574096398e-23)
(-0.00243969986740103 0.0101435768965772 -2.04258202219351e-20)
(-0.000767910410592119 0.00520328461750515 1.4143131853984e-24)
(-0.000187304562245615 0.00218312459550589 -1.41251312921627e-24)
(-4.75513784277739e-05 0.00115353656840657 0)
(-3.56654686121667e-06 0.000234066333324734 0)
(-1.79329755469498e-06 0.000170387361642124 0)
(2.48815895560419e-06 0.000117668788792465 0)
(3.74682936135715e-05 0.000227901419779707 3.75643810778704e-22)
(4.41904951878144e-05 0.000134972120834496 0)
(-6.37334772657416e-07 1.54435109784614e-07 0)
(-2.09288749812312e-05 -3.21109326152619e-05 4.52452184316736e-22)
(-1.75864598319655e-05 -2.36175052130991e-05 0)
(-1.17958503573632e-05 -1.46003645221016e-05 -1.4756139760582e-22)
(-7.73672348784304e-06 -9.13532651375588e-06 1.67296950739802e-22)
(-5.43390286313127e-06 -6.29371172541984e-06 -2.01822151894329e-27)
(-3.97690263387838e-06 -4.63049624828356e-06 7.03202525383994e-23)
(-3.14779157239023e-06 -3.75265528926047e-06 -1.86355240082948e-23)
(-2.61106014451261e-06 -3.18458269462511e-06 1.64650205153962e-23)
(-2.20846579416242e-06 -2.74626699311167e-06 4.29542192517048e-23)
(-1.88294034158772e-06 -2.37977706802256e-06 1.43638744937369e-23)
(-1.60981272448298e-06 -2.06053660723953e-06 -1.41205996770751e-23)
(-1.35419246014152e-06 -1.7483378956136e-06 -9.52987657014193e-27)
(-1.1060631431628e-06 -1.43393852045431e-06 2.93968987947239e-28)
(-8.30038025785272e-07 -1.08328388122546e-06 8.66376076113005e-27)
(-5.53702736905552e-07 -7.34981230317235e-07 7.74329306024351e-27)
(-2.85190773174432e-07 -3.8765974965992e-07 -1.92797942356013e-23)
(-3.82665431591993e-08 -4.77363132974999e-08 6.92420249877035e-27)
(1.769890375085e-07 2.82963601638344e-07 0)
(3.47404378480417e-07 5.97396707511294e-07 -1.68673659106547e-23)
(4.66054087187327e-07 8.94534552704394e-07 -8.80484321459286e-24)
(5.3357980573012e-07 1.17326410759274e-06 -1.16801110955641e-26)
(5.65013323379077e-07 1.46465498911575e-06 -1.13833673133629e-21)
(5.47598439162654e-07 1.74262634904328e-06 3.74392274913121e-23)
(5.03287152692734e-07 2.0862762106306e-06 1.49668574079095e-21)
(4.05240501093115e-07 2.42971093778282e-06 -1.4030695772385e-26)
(2.83184710685931e-07 3.02397883249177e-06 -2.20198076276094e-26)
(1.20027672121217e-07 3.66128265290871e-06 1.20560780934695e-21)
(1.24121303628046e-07 4.27114858929796e-06 2.38848855394314e-21)
(1.75547793893912e-07 5.04093926636695e-06 0)
(2.43034977984951e-07 5.31738502578303e-06 0)
(3.24726584852989e-07 5.39830196930757e-06 0)
(4.20650035331174e-07 4.83338330421952e-06 0)
(5.25790949699132e-07 3.80345016838414e-06 -2.3377692967312e-36)
(6.37861164532755e-07 2.09752405974388e-06 2.02387736966545e-25)
(7.51016981661271e-07 -8.71004843777228e-08 -2.02387736968159e-25)
(8.61914299078352e-07 -2.71787685062318e-06 3.24378324877889e-25)
(9.659944084088e-07 -5.53185024530492e-06 -3.2437832488165e-25)
(1.06086311472974e-06 -8.33178336480983e-06 0)
(1.14418227825173e-06 -1.08174496168242e-05 0)
(1.21511399503842e-06 -1.27288538234771e-05 0)
(1.27312154763393e-06 -1.37804409927677e-05 -1.2619915731723e-19)
(1.31844214108633e-06 -1.37244857469942e-05 -1.4264820867024e-19)
(1.35145094723565e-06 -1.23252732276063e-05 0)
(1.37279060794811e-06 -9.38405115579283e-06 0)
(1.38308418991679e-06 -4.72794820749482e-06 1.65006900675645e-19)
(1.38298580525524e-06 1.78140779764455e-06 1.82977969262155e-19)
(1.37308279743941e-06 1.02529468946627e-05 2.26266389233726e-19)
(1.3539366152674e-06 2.07634666389171e-05 2.40379380369369e-19)
(1.32606767121906e-06 3.33598522246316e-05 7.36811564443923e-25)
(1.28998965881909e-06 4.80582631434171e-05 0)
(1.24621744907112e-06 6.48450863248765e-05 0)
(1.19528762817808e-06 8.36768174797216e-05 -2.82332307655613e-35)
(1.13776596892281e-06 0.000104480742281162 2.91406947351183e-35)
(1.07425997707785e-06 0.000127155494816521 0)
(1.00543260459755e-06 0.000151572338133317 -1.04974326949656e-24)
(9.32007750022776e-07 0.000177577302018579 1.59223750459082e-24)
(8.54903856210576e-07 0.00020499380067432 -5.4249423509046e-25)
(7.74619339639948e-07 0.000233643329989173 0)
(6.91678176185294e-07 0.000263286042075888 0)
(6.07106026115985e-07 0.000293685954759821 -3.26519901657532e-19)
(5.21743868035239e-07 0.000324601185934576 -1.56026314362424e-20)
(4.3634276960045e-07 0.000355783246469002 3.06282045469924e-19)
(3.51614948859222e-07 0.000386980957531594 -3.09765567182058e-35)
(2.6822235893309e-07 0.000417944307730824 0)
(1.86766962266368e-07 0.000448428151486939 0)
(1.07782920605064e-07 0.00047819565677321 2.92882691970797e-35)
(3.17310333145581e-08 0.000507021419202604 0)
(-4.10047357118293e-08 0.000534694172837633 0)
(-1.10118654654794e-07 0.000561019058387719 0)
(-1.75382725649269e-07 0.000585819402095327 -6.27694755594926e-25)
(-2.3664442638909e-07 0.00060893801313286 6.27694755594924e-25)
(-2.93823391911452e-07 0.000630237970559549 0)
(-3.46906102289321e-07 0.000649602968178261 1.22221036659011e-24)
(-3.95941420038777e-07 0.000666937149448162 -1.22221036658795e-24)
(-4.41032966187861e-07 0.000682164651969563 -1.19055898792585e-24)
(-4.82334851077077e-07 0.000695228575312288 1.19055898793098e-24)
(-5.20041797476362e-07 0.00070609001024264 1.15265268709822e-24)
(-5.54388736971871e-07 0.000714726177966706 -1.15265268710301e-24)
(-5.85635148366962e-07 0.000721129387460611 0)
(-6.14074192377728e-07 0.000725304172721071 -1.71168626718874e-19)
(-6.40003921735003e-07 0.000727267021373284 -3.25873753124453e-19)
(-6.63758922109525e-07 0.00072704174235721 -1.55055456817516e-19)
(-6.85649227179545e-07 0.000724661633860901 -5.18576044282983e-26)
(-7.06041884913849e-07 0.000720161023319257 -2.02217303660538e-24)
(-7.25225892791648e-07 0.000713583446794038 -1.91392217695357e-24)
(-7.43603228793915e-07 0.000704964517488961 1.91392217698958e-24)
(-7.61388043652766e-07 0.0006943537492744 0)
(-7.79039073536043e-07 0.000681778229878247 0)
(-7.96597945189067e-07 0.000667293893389814 0)
(-8.14640087409515e-07 0.000650908048562786 0)
(-8.32835722555303e-07 0.000632692225914182 0)
(-8.52013540048316e-07 0.000612619589509604 0)
(-8.71088914437499e-07 0.00059080284504835 0)
(-8.91404794436663e-07 0.00056715894159942 0)
(-9.10433274878363e-07 0.000541899933964843 0)
(-9.30322835536885e-07 0.00051484524617854 0)
(-9.46436805428613e-07 0.000486438198436227 0)
(-9.63084450902076e-07 0.000456291299258411 0)
(-9.82090808950723e-07 0.000425256992200476 0)
(-1.02082079237184e-06 0.000391945710062217 0)
(-1.06769216700774e-06 0.0003572498270837 -1.68539377861921e-24)
(-4.35358450647503e-06 0.000322182192065036 1.16034127587572e-23)
(-2.54523513423623e-05 0.000312449457877599 0)
(-5.16206902039446e-05 0.000328042971200689 0)
(-8.39332505518734e-05 0.000360623639277461 1.81050863819479e-21)
(-0.000124778317955337 0.000406612129861128 -3.77201485202347e-22)
(-0.000175706265685646 0.000463369868705776 -2.37382388849086e-21)
(-0.000238419655236914 0.000530481612089301 2.750493905412e-21)
(-0.000313883867841487 0.000606743638422374 0)
(-0.000404859900396492 0.000695899972916017 -1.0503827870207e-21)
(-0.00050824572421234 0.000797985827876547 -7.49200302857362e-21)
(-0.000618703447134337 0.000908220265451878 2.44739972129075e-24)
(-0.000729700177209025 0.00102000535510062 -5.31999271198954e-24)
(-0.000831899265079589 0.00112413521390161 6.01313841140178e-24)
(-0.000920759271399224 0.00121835465009095 -3.24061166570833e-24)
(-0.000983208558032811 0.00128851590948198 -1.5315599901247e-20)
(-0.00101559448614618 0.00132318219190677 1.62790928198641e-20)
(-0.00102737796729597 0.00132677326665956 2.23654003738238e-24)
(-0.00102246503697289 0.0013048377866513 -2.31898448508959e-24)
(-0.00100481140341906 0.00126367835736881 1.86639190422231e-20)
(-0.000971453277204859 0.00120124548933006 1.97062407503552e-20)
(-0.000920960114614758 0.00111873163762906 -9.65524470181106e-21)
(-0.000845009191905851 0.00101257905221636 0)
(-0.000686219813529188 0.000832210464581102 0)
(-0.000393553388497393 0.000511800219702816 0)
(9.52628645143614e-05 -5.96193917900775e-05 4.1341313837153e-20)
(0.000851231303156047 -0.00107283149050497 3.22277202688814e-25)
(0.00183994142889664 -0.00275325832243249 0)
(0.00266196681737971 -0.00509567100871319 -6.05800092676566e-20)
(0.00212725135951089 -0.00617558942583602 0)
(0.000612013380525022 -0.00353147286389073 1.97942403694267e-20)
(3.28082556688519e-05 -0.00118174742841398 -1.65833940504931e-24)
(-3.57039563579548e-05 6.5120506002062e-05 3.437492974498e-25)
(-1.20568120594636e-05 0.000321167377096242 0)
(-1.70423576414032e-05 0.00316560331024095 0)
(1.32316040032694e-05 0.00278402569023317 -3.45734338651579e-25)
(0.000148660494135285 0.00209161501061348 -1.18042718975498e-25)
(0.000211856382169418 0.00121623427820512 2.33936901272085e-25)
(0.000155143024565062 0.00049493540163289 2.39856222138919e-25)
(5.76805800337077e-05 0.000127569923382054 -7.69728636260651e-22)
(1.26001359116145e-05 2.30905768245686e-05 -3.63122636203764e-22)
(3.34876213972234e-06 5.22939859736998e-06 -3.56238970587759e-27)
(2.65118707819783e-06 3.50113269332427e-06 3.53255313305013e-23)
(2.71766417911799e-06 3.34709629608301e-06 -3.54312635715659e-23)
(2.50322965493506e-06 3.00529417514095e-06 0)
(2.18322344638883e-06 2.62075794142154e-06 -4.86938831790571e-23)
(1.90838084899161e-06 2.32832135667437e-06 -2.39150418948209e-23)
(1.75383621429567e-06 2.17588497096102e-06 2.21652883363965e-23)
(1.69390428884664e-06 2.13213325494552e-06 3.62158380440446e-23)
(1.71899631013954e-06 2.18891750510747e-06 -1.39223846352276e-23)
(1.82029509518184e-06 2.33912877947075e-06 1.36815883265055e-23)
(1.98357438554264e-06 2.56675897633719e-06 -3.93611165092778e-23)
(2.18774922135015e-06 2.84479323978609e-06 -3.75794931162231e-26)
(2.40370643188565e-06 3.15389610854003e-06 1.90426304404581e-26)
(2.60598372198012e-06 3.48954502576207e-06 4.90244777086054e-23)
(2.78641770811604e-06 3.85738372959155e-06 -2.35469653679075e-26)
(2.92726793447213e-06 4.25246849256278e-06 5.62070431218134e-23)
(3.01297971740035e-06 4.67582399756256e-06 2.86780468364681e-26)
(3.03201275807929e-06 5.14132725063041e-06 1.62424911788131e-23)
(2.98632251029844e-06 5.67919416946523e-06 8.5289651660899e-24)
(2.89198020827624e-06 6.30835911166966e-06 -6.38132911922916e-21)
(2.73528118193883e-06 7.03591848819458e-06 -6.01356582286916e-21)
(2.50688780931933e-06 7.90531142660853e-06 -8.57583649506672e-23)
(2.19833826717577e-06 9.01011842849019e-06 -1.42504284068531e-21)
(1.79128750302563e-06 1.05367946710777e-05 2.77515270170366e-23)
(1.24925252239946e-06 1.29160764589104e-05 0)
(5.47439630386794e-07 1.71973263377253e-05 -6.87006560673254e-25)
(5.28119742668631e-07 2.4527955716624e-05 0)
(7.00656594845937e-07 3.43901239213106e-05 -3.46802183112847e-20)
(9.13547393703941e-07 4.71479063445551e-05 -4.81654920361953e-20)
(1.17069223545401e-06 6.36205248382891e-05 -3.33720321862084e-25)
(1.46628180962232e-06 8.43468754270077e-05 7.74942111276287e-25)
(1.79423831232963e-06 0.000109938193371716 1.31545825954783e-25)
(2.14703422008482e-06 0.000140804396537991 -1.30294653329504e-24)
(2.51575637519651e-06 0.000177321154381492 -1.84444423015787e-25)
(2.89151746436287e-06 0.000219680081117367 9.14623340928098e-25)
(3.26605154263477e-06 0.000267991576376631 -1.3660697822076e-24)
(3.6324793916516e-06 0.000322228650185142 1.366069782205e-24)
(3.98542859707549e-06 0.00038229300883189 0)
(4.32104923457073e-06 0.000448003868421786 0)
(4.63671670092312e-06 0.000519136740636771 0)
(4.9307159799304e-06 0.000595424262878964 0)
(5.20188278062337e-06 0.00067657414350156 -3.32420531302435e-24)
(5.44932297780114e-06 0.00076226892133677 3.3242053129618e-24)
(5.67219776828642e-06 0.000852171019411031 -1.61456154966511e-19)
(5.86960026796793e-06 0.000945920078506006 -1.75943600415349e-19)
(6.04050055551732e-06 0.00104313247497215 0)
(6.18375009698388e-06 0.00114339851338882 0)
(6.29812247260037e-06 0.00124628133044144 0)
(6.38237450734485e-06 0.00135131589530476 0)
(6.43531110546239e-06 0.00145800952157595 0)
(6.4558469913701e-06 0.00156584311871174 -3.67047708336739e-24)
(6.44306922724602e-06 0.00167427359190676 3.67047708339925e-24)
(6.39631445118396e-06 0.00178273725931844 0)
(6.3153015756267e-06 0.00189065484141813 4.37264659879473e-24)
(6.20021928520734e-06 0.00199743974873099 -2.07267995540478e-24)
(6.05352977542876e-06 0.00210250766218829 -2.29996664338946e-24)
(5.87348188302023e-06 0.00220534688211621 0)
(5.65870493126818e-06 0.00230528415995578 -2.62229389472151e-24)
(5.41318551890549e-06 0.0024017539396258 3.98304977328825e-24)
(5.1393500957609e-06 0.00249422355896498 -1.36075587857548e-24)
(4.83948368652805e-06 0.00258219260351987 0)
(4.5161313093476e-06 0.00266519851847768 -3.73398607648675e-25)
(4.17204419639962e-06 0.00274282136528563 3.73398607648675e-25)
(3.81012272988897e-06 0.00281468765321364 3.91686673362868e-25)
(3.43335737948469e-06 0.00288047317396272 -3.9168667336286e-25)
(3.04477002664711e-06 0.0029399048007586 0)
(2.6473573457462e-06 0.00299276126171939 -1.65037684870264e-24)
(2.244037387846e-06 0.00303887291342075 4.99226133535495e-24)
(1.83760113580615e-06 0.00307812056710406 3.36812503556023e-26)
(1.43066946459956e-06 0.0031104334621026 2.62226309476802e-26)
(1.02565602960161e-06 0.00313578645756127 -3.40178836796076e-24)
(6.24737573333634e-07 0.00315419656969632 0)
(2.29828887450002e-07 0.00316571896339903 0)
(-1.57433928632882e-07 0.00317044247586915 6.86673045490722e-24)
(-5.35704501861014e-07 0.00316848484298629 -1.96377734996318e-26)
(-9.03932544659518e-07 0.00315998772889703 -6.84709268137869e-24)
(-1.26136632702639e-06 0.00314511152966057 0)
(-1.60754648363958e-06 0.00312403029389662 0)
(-1.94230030881396e-06 0.00309692646489705 0)
(-2.26572643360886e-06 0.00306398616416477 0)
(-2.57818645386958e-06 0.0030253939798508 0)
(-2.88027605073318e-06 0.00298132910636233 -1.27088712279161e-23)
(-3.17281731751671e-06 0.00293196012085036 2.3261730159307e-25)
(-3.45680562800267e-06 0.00287744281400011 1.24762539261987e-23)
(-3.73341380244607e-06 0.00281791458600351 1.19490980033497e-23)
(-4.0038677769026e-06 0.00275349538482036 -2.36046496642318e-23)
(-4.26952982068473e-06 0.00268428156342615 2.29980797830264e-23)
(-4.53156944308196e-06 0.0026103510246146 -2.23528210875389e-23)
(-4.79131073694435e-06 0.00253175812743036 1.10102929659833e-23)
(-5.04929140440739e-06 0.00244854177721023 1.02888223967402e-23)
(-5.30645849381212e-06 0.00236073128045449 -3.89046683851592e-25)
(-5.5616972843696e-06 0.00226834410300851 -9.89977571279268e-24)
(-5.81486414613919e-06 0.00217143267539375 0)
(-6.06164450818866e-06 0.00207004083989363 0)
(-6.29806744896969e-06 0.00196433764870867 0)
(-6.51766292480638e-06 0.00185454664407749 0)
(-6.71505168344411e-06 0.00174099837475552 -1.43787374490975e-23)
(-6.9485089523892e-06 0.0016241937500829 1.61513684958795e-18)
(-7.273234213813e-06 0.00150236664706907 1.48418757096035e-18)
(-7.49305374921722e-06 0.00137478329663818 -1.22933835264152e-23)
(-1.88643683976668e-05 0.00124734362298577 -2.12791331698361e-22)
(-9.80241273906498e-05 0.00121235161123943 1.0487280804526e-23)
(-0.000196724000777467 0.00126983450336151 -1.14385462126557e-23)
(-0.000318827101803357 0.00139141670172493 -1.74379099088196e-21)
(-0.000471268985250853 0.00155785054189988 1.46635958651701e-23)
(-0.000659281311306717 0.00176127043251253 2.30320289831697e-21)
(-0.000886942170463761 0.0019967334881412 -1.39899847483477e-20)
(-0.00115719089069217 0.00226138324028407 -2.03383960817606e-23)
(-0.00147874565216286 0.00256800866965058 2.6512419486976e-23)
(-0.00184049515954357 0.00291742273155264 -2.74148574715483e-20)
(-0.00222604241457647 0.00329605442356548 1.59748695688018e-23)
(-0.00261999901099273 0.00369022722281615 -4.6857529970733e-20)
(-0.00300541836564786 0.0040877487079455 -5.25953432154965e-20)
(-0.00336573552896987 0.0044776573683642 5.80775560940396e-20)
(-0.00366334207138772 0.00482068688540948 1.48401089689332e-20)
(-0.00388803935925652 0.00508063621640632 -8.21978621561399e-20)
(-0.00407607087977025 0.00527487453473537 -1.40726439785125e-23)
(-0.00425420892808667 0.00543644875837423 -7.19598515914469e-20)
(-0.00444790369747947 0.00559707657261207 -9.27795658802184e-20)
(-0.00468670921358352 0.00579243873241049 -1.90913059414092e-20)
(-0.00501043967251923 0.00607111512851022 0)
(-0.00553808947636674 0.00658656083837684 -9.88325592177956e-24)
(-0.0062634817252516 0.00744160654723893 4.55646277632933e-24)
(-0.0071498425190589 0.0086936992503753 5.96532279043598e-24)
(-0.00817280703643663 0.0104496812784422 1.4491542433274e-19)
(-0.00925367205122249 0.0128702028054815 3.65615981430281e-24)
(-0.0100450635983058 0.0159700342341503 -2.12277754986313e-19)
(-0.00949945402741862 0.0187004656502671 -1.19852032883611e-19)
(-0.00634286300486193 0.0179439710834063 -1.09828358544504e-19)
(-0.00288416276010148 0.0138799645532477 4.02500807781657e-20)
(-0.000909148230405222 0.00914905699505367 3.5558888700576e-24)
(-0.0001497398542683 0.00565337192210407 9.59076133763969e-22)
(-3.9930601397253e-05 0.00391567937987167 0)
(-6.36031277344778e-05 0.00795882591307367 0)
(1.35273523104318e-05 0.00700048538241143 -2.46690849330282e-24)
(0.000345443532610905 0.00526813397307655 -7.96482799143711e-21)
(0.000496984287780453 0.00303261256609383 0)
(0.00036490493005542 0.00123730979273532 0)
(0.000142803919282523 0.000337556142837551 2.99325538967785e-21)
(3.80176883093414e-05 7.28679694041688e-05 3.51845993290831e-22)
(1.3850537939251e-05 2.13314773961055e-05 0)
(1.02931454231807e-05 1.34441742978049e-05 -8.12838221565092e-23)
(9.23993474791044e-06 1.13303969171377e-05 -1.16461306104856e-26)
(8.00927730336258e-06 9.61331799249743e-06 1.12482342272304e-26)
(6.75774593137944e-06 8.12842712709646e-06 4.71625049845286e-23)
(5.80126102817924e-06 7.09855687250856e-06 4.06675468867502e-23)
(5.23962076997701e-06 6.51853077080743e-06 -3.69394576105261e-23)
(4.9615651916989e-06 6.25867131621549e-06 -3.50867889050982e-23)
(4.92412270950446e-06 6.27836001143422e-06 0)
(5.09726368429399e-06 6.55234635163519e-06 5.72313053003578e-26)
(5.43447802141511e-06 7.02904174546189e-06 -7.02367523144982e-23)
(5.8800902936591e-06 7.63856159583374e-06 -6.85480310426051e-27)
(6.35052752310314e-06 8.32166365619662e-06 6.42727685740856e-26)
(6.78804609731262e-06 9.07537781466903e-06 -4.74274281835061e-23)
(7.17347105076115e-06 9.91274598122727e-06 1.47393349010248e-22)
(7.46567321639569e-06 1.08235232198966e-05 -5.42469066482828e-23)
(7.62795669080623e-06 1.18101099309064e-05 -1.69005995741627e-22)
(7.63440498309753e-06 1.29077307791191e-05 2.01688431959248e-25)
(7.49086081558794e-06 1.41907613795433e-05 2.2224152929399e-26)
(7.23866383263875e-06 1.57098417884465e-05 6.32450700826466e-21)
(6.84100503822697e-06 1.74769515833902e-05 6.78855155674653e-21)
(6.28118489238591e-06 1.96111430053528e-05 -1.22929205453815e-22)
(5.53681101302388e-06 2.23291738081226e-05 -2.73916575834414e-25)
(4.5822625551025e-06 2.61326054166025e-05 -2.69900674019449e-23)
(3.34502323154307e-06 3.20520156052943e-05 -4.8225813758331e-23)
(1.79078403199365e-06 4.27623470586851e-05 -8.68701668054308e-24)
(1.95133800418117e-06 6.11449966210071e-05 6.62940692861741e-25)
(2.5811556497552e-06 8.59603340327258e-05 3.42899853576117e-20)
(3.35157872446022e-06 0.000118301503909658 4.60362744525605e-20)
(4.28044710338027e-06 0.00016013584559756 0)
(5.34565328808907e-06 0.000212955629411126 3.1518201298324e-24)
(6.52841815967423e-06 0.000278252702655791 -3.15182012984873e-24)
(7.80141635461112e-06 0.000357120231862192 0)
(9.13555563486864e-06 0.000450444263822535 0)
(1.0499314592788e-05 0.000558691303634898 0)
(1.1864897300437e-05 0.000682055022719112 0)
(1.32077612672894e-05 0.000820400744478813 0)
(1.45092433266244e-05 0.000973384413022104 0)
(1.575512745928e-05 0.00114046614584423 0)
(1.6935700344295e-05 0.00132098943449889 0)
(1.8044020866542e-05 0.00151420155915224 -1.04085344649057e-23)
(1.90751616374776e-05 0.00171929138151636 1.04085344649983e-23)
(2.00249743125222e-05 0.00193539579669655 0)
(2.08895420243123e-05 0.00216160917031327 0)
(2.16646445983069e-05 0.00239697897628945 -1.62116686504597e-23)
(2.23456450182001e-05 0.00264050304968371 -1.58809445008903e-24)
(2.29274662444054e-05 0.00289112322738701 1.77997631003641e-23)
(2.34047677775818e-05 0.003147721925302 -1.05462865579513e-23)
(2.37721510732971e-05 0.00340911984678003 1.05462865578406e-23)
(2.40244062273441e-05 0.00367407701087853 0)
(2.41567329593874e-05 0.00394129595052209 0)
(2.41649778477991e-05 0.00420942756337042 0)
(2.40459217482349e-05 0.00447707955210549 0)
(2.37978104214631e-05 0.00474282848988283 1.56619422813221e-23)
(2.34208508645222e-05 0.00500524116718863 -1.56619422813506e-23)
(2.292391878453e-05 0.00526291579189776 0)
(2.22980655731038e-05 0.00551453855222311 0)
(2.15381237384099e-05 0.00575852221478041 9.43325069348102e-24)
(2.0660064777655e-05 0.00599352182452252 -9.43325069346515e-24)
(1.96716395659691e-05 0.00621826568225442 0)
(1.85810448451298e-05 0.00643156524320898 0)
(1.73975380346216e-05 0.00663232805625258 0)
(1.61312361429337e-05 0.006819568576698 0)