/*--------------------------------*- C++ -*----------------------------------*\
| =========                 |                                                 |
| \\      /  F ield         | OpenFOAM: The Open Source CFD Toolbox           |
|  \\    /   O peration     | Version:  3.0.1                                 |
|   \\  /    A nd           | Web:      www.OpenFOAM.org                      |
|    \\/     M anipulation  |                                                 |
\*---------------------------------------------------------------------------*/
FoamFile
{
    version     2.0;
    format      ascii;
    class       volTensorField;
    location    "30000";
    object      grad(Usqr);
}
// * * * * * * * * * * * * * * * * * * * * * * * * * * * * * * * * * * * * * //

dimensions      [0 0 -1 0 0 0 0];

internalField   nonuniform List<tensor> 
21000
(
(-0.000312553423390381 1.42728470843295e-07 0 0.265909767102762 1.92117455977243e-06 0 0 0 0)
(0.00224947452400507 6.18241340137897e-06 2.43483983522857e-43 0.244098878896971 1.97327594917292e-05 2.11438051693353e-45 0 0 0)
(0.0146580720667566 9.10535148959201e-05 6.13479738735692e-43 0.186967010449985 0.000993814763862323 4.98028752846324e-42 -1.06203513655967e-23 -1.37561981475311e-25 -4.27988477384894e-63)
(0.00885796603902535 0.000273333047568355 5.40484508859495e-35 0.0496145880085513 0.00141996666344401 1.90115501780802e-34 -9.99535767312307e-20 -2.86031099633812e-21 -3.8244292937892e-52)
(0.000374342000182233 3.0708240408057e-05 1.11605202384084e-34 0.00149914447765816 7.02951870954e-05 3.1978668338617e-34 0 0 0)
(0.00405717431137534 0.00116703268220294 -1.7354911057865e-35 0.00777505664414211 0.00222293154281248 -2.69427562443703e-37 0 0 0)
(0.00602945234116003 0.00245523333623076 1.66340293535485e-33 0.0094352882898241 0.00381810179505816 2.59494162207404e-33 -8.8611330784012e-20 -3.58561064684716e-20 -2.43680490588707e-50)
(0.00440183112364481 0.00231079603852807 7.85292605661415e-35 0.00605708736727112 0.00316354938241353 -1.85373843302659e-37 -4.94306023430536e-25 -2.17251329726025e-25 -5.64000515742872e-63)
(0.00287237149270949 0.00177812836835015 9.40854531354875e-34 0.00363773068541494 0.00224478772229514 1.07122406199326e-33 3.67675000536131e-20 2.26888972976394e-20 1.08416054190348e-50)
(0.00189540097804198 0.00129826393108268 9.163321940265e-33 0.00228315092966307 0.00156108453967333 1.10503270687708e-32 -2.35267242993905e-20 -1.60865088925906e-20 -1.13862075182896e-49)
(0.00135186147586832 0.0009703564078251 3.14729103843465e-34 0.0015909849043046 0.00114132069483893 -9.87127004978754e-36 2.42754096605587e-25 1.83221806937226e-25 1.07747574000629e-53)
(0.00101746825916356 0.000728883989051264 6.28301810745655e-33 0.0011993698516073 0.000859514383542418 7.35357101773163e-33 -1.24524684619531e-20 -8.92382395890668e-21 -7.63839288919721e-50)
(0.000831698840160374 0.000573552144904523 2.10557874425399e-33 0.000999707615564021 0.000690023081634219 2.85349936821164e-33 -5.45396736682857e-25 -3.84237383533389e-25 -1.12269308043517e-53)
(0.000713295651659083 0.000472410034834798 3.64971745179293e-33 0.000875334425080552 0.000580234958127718 4.30480684555533e-33 8.45982225895732e-25 5.51428170235517e-25 1.3414964530885e-53)
(0.000626558151998382 0.000400209594338664 3.53570213537518e-33 0.00078310274735715 0.000500589891470046 4.55327025136603e-33 -7.93251870655401e-21 -5.07062540518049e-21 -4.60801919542805e-50)
(0.000559277076634853 0.000346688703978525 2.48838697410822e-33 0.000709822445504354 0.000440297768780417 3.31708536894517e-33 0 0 0)
(0.000506414761129533 0.000306396534311039 2.84327929687327e-33 0.000650631056968513 0.000393851516175691 3.44480587709489e-33 0 0 0)
(0.00045962870610316 0.000273230294996855 1.37110126656233e-33 0.000595845264034469 0.000354328783234371 1.54705791625109e-33 1.12605257097226e-24 6.70808016972284e-25 3.09101231594535e-53)
(0.000415823821764506 0.000244142345093528 1.09526034431505e-33 0.000542263360943254 0.00031849236737459 1.62111076839197e-33 -2.09897639408658e-24 -1.24293373981873e-24 -4.54937456179026e-53)
(0.000367101003456017 0.000211255050367704 -1.57037004358315e-34 0.000483374409670913 0.00027838155644948 1.194297549479e-35 9.76511009348824e-25 5.74494211090811e-25 1.50583168049169e-53)
(0.000319109638170597 0.000175921769351376 1.92967702588092e-34 0.000429086718251521 0.000236908391873776 -1.61053488038486e-35 7.73902659981557e-25 4.21880097595196e-25 1.76071178269702e-53)
(0.000272174921272662 0.000140005621646504 4.37450521319684e-33 0.000378648172161991 0.000195247296768361 6.05677100810526e-33 3.68761801167771e-21 1.90121689170737e-21 5.89926900808588e-50)
(0.000227268813930686 0.000105810330568742 -1.87165248945515e-34 0.000332083686487561 0.000155167003630371 1.62077992836096e-35 1.20811055816967e-24 5.8115275048986e-25 1.66863370080746e-53)
(0.000184880912593866 7.50950145016068e-05 5.10442211866899e-40 0.000288939314263294 0.000117978347805855 2.03219320887102e-39 -5.44474766356549e-25 -2.47065552778925e-25 -8.39580906732597e-59)
(0.000146922659449394 4.9714686473073e-05 3.02196158080337e-33 0.000251299971184528 8.56783858150392e-05 5.03624387971552e-33 0 0 0)
(0.00011517759824515 3.08031517750145e-05 1.08150681557548e-33 0.000221351895599336 5.98267913627271e-05 1.93289260205397e-33 0 0 0)
(9.09779209340284e-05 1.83566903021685e-05 2.30849207994741e-34 0.000201048958947195 4.11387813955239e-05 6.39699059440503e-34 -5.91911740788687e-25 -1.12495415410719e-25 -1.07151494686875e-53)
(6.99537152416834e-05 1.00488703814868e-05 7.50643819962429e-30 0.00018274376337459 2.67927943317956e-05 1.95514950620801e-29 5.72974904568335e-25 1.0889638685566e-25 1.03723432417072e-53)
(5.59279585031948e-05 5.27885984090369e-06 1.70291761488584e-33 0.000179932009783491 1.74918841434217e-05 5.47021219201137e-33 0 0 0)
(4.22014287292041e-05 2.29214627386582e-06 6.18108564684942e-30 0.000177091844630166 1.01696986637641e-05 2.61252795385942e-29 0 0 0)
(3.54929189688028e-05 8.91820949416899e-07 4.62591584670196e-36 0.000217779489103014 6.05517415351073e-06 -3.54877511896456e-37 6.21843534195056e-25 1.12475772979098e-26 7.23408120104499e-55)
(2.37640782597252e-05 1.38968295735079e-07 1.5712156697027e-30 0.000260480739216049 2.34054459793114e-06 -1.29883606681736e-31 -1.22579122399224e-25 -9.70100147812112e-27 1.22638808537304e-49)
(1.33383041576278e-05 -9.46490093358551e-09 2.23864281155588e-30 0.000501604125931096 6.57834598505991e-07 5.40011374216198e-29 -2.89017277937406e-19 -3.78531755930914e-22 -3.10724347008063e-44)
(1.30520836477175e-05 -1.31890772194913e-09 -1.57263399066942e-30 0.00108928131818564 4.3801631464299e-07 5.35475132009654e-29 -6.2951268767618e-19 -2.52673590673973e-22 -3.09591614277666e-44)
(2.00786442382069e-05 1.43323983859067e-10 -1.62320012476908e-30 0.00189999849383901 5.87758898467159e-07 1.27123842723048e-31 3.67490446452894e-24 5.92098551476171e-29 4.46533315047563e-59)
(2.97442733897795e-05 1.59827157617783e-10 5.03191689600209e-43 0.00320810273343911 7.49435229516251e-07 2.93995426816833e-39 -3.6749044645289e-24 -5.92098551476166e-29 -4.4653331504756e-59)
(4.14531074920216e-05 2.07493136875471e-10 -2.86132395007476e-40 0.00499359605494448 9.33569614696777e-07 2.96614498530742e-39 9.22995470272518e-24 8.78693741378085e-29 2.23676160156439e-59)
(5.54237471028415e-05 2.15052927011726e-10 -2.86678670248135e-40 0.00746672158369211 1.10255544010035e-06 2.05818024542886e-41 4.32434024581331e-24 1.67791258416932e-29 -2.23675982980713e-59)
(7.06021977695523e-05 2.33605847985813e-10 1.14981140919913e-39 0.0106221307243572 1.25281677308364e-06 -7.75413611546503e-41 5.50861212417182e-24 1.82266848220842e-29 8.97120099561117e-59)
(8.66754765232335e-05 2.26004534187968e-10 1.05628909245648e-46 0.0145648412177599 1.3647358802296e-06 1.8511291777351e-38 -4.48885155332579e-23 -2.63383975304184e-28 -1.79424063588392e-58)
(0.000102478413067281 2.16987286786964e-10 -8.61741213111425e-40 0.0192540678266268 1.43551093210566e-06 6.74974335362811e-39 -7.99569767687544e-24 -1.69300508560273e-29 6.72358403054035e-59)
(0.000117477008943527 1.91615345618346e-10 -2.32860944760481e-46 0.0246839432076951 1.46072783208674e-06 9.67161715329187e-39 3.38213061370553e-23 1.57438841357324e-28 2.24761956098668e-59)
(0.000130806974363336 1.63119754278151e-10 1.99786185848766e-42 0.0307621279689188 1.44505575691887e-06 6.70625654794951e-39 0 0 0)
(0.000142102557441812 1.27051733212518e-10 7.36764104340789e-46 0.0374045862044784 1.39385161579456e-06 2.97979897986477e-39 -6.42805283631027e-23 -1.95029410406058e-28 -2.26321145787729e-59)
(0.000150958597390354 9.02979562703941e-11 8.7553118785509e-40 0.0444871583298567 1.31562799009055e-06 -4.69786207611962e-41 -1.17782786670031e-23 -7.04533898963145e-30 -6.83117787954932e-59)
(0.000157295995429315 5.1941709243562e-11 1.61843621269278e-30 0.0518924881870541 1.21816427675943e-06 -8.45004849803635e-32 1.64390357045047e-22 4.08202159162043e-28 1.26275635007569e-49)
(0.000161068656412348 1.5114449047202e-11 1.65762095802743e-30 0.0594926395348051 1.10902216480156e-06 5.48028465206407e-29 3.42808015848077e-17 6.39599071086351e-22 3.15609034732745e-44)
(0.00016239453578473 -2.03544447794584e-11 -1.61843621240561e-30 0.067170032792386 9.94189250799953e-07 5.47240000498766e-29 3.87837783607185e-17 5.73517151159725e-22 3.16107180146394e-44)
(0.000161407202487659 -5.3244414124762e-11 -1.65762095890315e-30 0.0748107640584788 8.78467959983869e-07 7.933418430589e-32 -1.13569195849463e-22 -2.05718568335159e-28 -1.29332955675932e-49)
(0.000158298582343698 -8.35895490938071e-11 2.8791852931923e-42 0.0823125204325618 7.65286161032402e-07 3.05308212749758e-39 -1.38513676587427e-22 -1.95042339366831e-28 -4.63661658291488e-59)
(0.000153253751695499 -1.10892200987211e-10 -2.22017194362992e-40 0.0895813126136065 6.57089771580925e-07 2.85302322017177e-29 1.38513676588972e-22 1.95042339369007e-28 4.63661658296659e-59)
(0.000146468109349137 -1.35056491540879e-10 1.67270125614771e-30 0.0965337996763666 5.55490150506845e-07 2.91018524300257e-29 -8.09494734374206e-23 -8.79263129208222e-29 -6.52547846446574e-50)
(0.000138124487313748 -1.55755500741253e-10 1.70827764749071e-30 0.10309545520484 4.61545729731804e-07 5.63360905935313e-29 -5.94180870374175e-17 -2.66166564221098e-22 -3.24566139672923e-44)
(0.000128403358514971 -1.72777616748838e-10 -1.67270125636895e-30 0.109201015625251 3.75910480247934e-07 5.64743841066733e-29 -6.30335451275887e-17 -2.16862040655506e-22 -3.26083510361383e-44)
(0.000117477562589322 -1.85832419620421e-10 -1.70827764756614e-30 0.114793553896205 2.98984082287127e-07 5.94608199288194e-32 -9.13471562963694e-23 -7.51097040101344e-29 -6.66426772716698e-50)
(0.000105518876184342 -1.94696360158076e-10 -7.60983473843011e-41 0.11982454867529 2.30989514742245e-07 2.48324127680017e-42 0 0 0)
(9.26977541231917e-05 -1.99171677317737e-10 1.65342109008638e-62 0.12425355128585 1.72031112052058e-07 -4.67605121693067e-64 0 0 0)
(7.91863953311832e-05 -1.99154600182742e-10 1.66667098853918e-62 0.128048269011543 1.22117812790263e-07 5.50823965832141e-61 7.18735245909336e-33 6.85421845052861e-39 3.09410628254592e-92)
(6.51584708672318e-05 -1.94631902453727e-10 -1.65342109009366e-62 0.131184505377352 8.11748572640695e-08 5.56055112883517e-61 -7.36335640600303e-33 -4.55607742339647e-39 -3.11860285883237e-92)
(5.07896303907187e-05 -1.85707059365971e-10 -1.66667098854623e-62 0.133646229478583 4.90434558948512e-08 3.98836590590583e-64 0 0 0)
(3.62564256420939e-05 -1.72601093291627e-10 2.02697614923682e-41 0.135425554790583 2.54769946459892e-08 1.85318081303678e-39 0 0 0)
(2.17345496142359e-05 -1.55664112685435e-10 2.02696678654016e-41 0.13652270506753 1.01342851080087e-08 4.39044450247397e-39 5.67688662572805e-23 8.54075548817988e-30 7.9075439264771e-61)
(7.39539581275831e-06 -1.35366860146807e-10 3.65405625584449e-43 0.136945825058086 2.57518100171423e-09 6.75709900687421e-40 -5.6768866257074e-23 -8.5407554881488e-30 -7.90754392644833e-61)
(-6.59673756176676e-06 -1.12274785892525e-10 3.65617566417454e-43 0.136710642556744 2.26221056278771e-09 2.12019332951914e-40 5.67844447330057e-23 3.71030467742595e-30 8.05013591884212e-61)
(-2.0086870308917e-05 -8.70260162575731e-11 1.86777827888106e-30 0.135840047199762 8.56643373254065e-09 -2.03164467615633e-32 -5.67844447329981e-23 -3.71030467742545e-30 -8.05013591884104e-61)
(-3.29322917838471e-05 -6.03139531528038e-11 4.78603846405924e-33 0.134363566701303 2.0776502170415e-08 6.24145212257187e-29 7.7482178439617e-17 1.19831468394891e-23 3.59887058312843e-44)
(-4.50053731301633e-05 -3.28556943460446e-11 -1.41419373634668e-31 0.132316675919178 3.81126719235949e-08 1.51814753595951e-31 3.7541187704484e-18 1.07461009767682e-24 1.97204866322223e-47)
(-5.61955214761446e-05 -5.36311696902171e-12 -4.78603848369546e-33 0.129740032476819 5.97438635736483e-08 5.74539568150949e-29 -7.11827779181087e-17 -3.27758709830126e-23 -3.15237223761397e-44)
(-6.64108148661553e-05 2.14823516020501e-11 -1.7263589052673e-30 0.126678632992268 8.48069574973902e-08 7.51127253343791e-33 1.34440644225539e-23 2.27076098730401e-32 8.41850705136266e-51)
(-7.55790532737024e-05 4.70531620498849e-11 -1.33805368036278e-42 0.123180917910314 1.12427177504389e-07 2.91089118689844e-45 0 0 0)
(-8.36482510365891e-05 7.07952625504073e-11 1.38834839120982e-42 0.119297850384961 1.41738564741638e-07 3.02030565412113e-45 0 0 0)
(-9.05865783922785e-05 9.22431260175818e-11 1.38845118564247e-42 0.11508199350464 1.71903571646477e-07 1.42682034726306e-41 1.1902009719097e-23 1.15196671000953e-30 1.35409309994741e-62)
(-9.63817495567732e-05 1.11029604888979e-10 -1.388348391211e-42 0.110586610062332 2.02130834111284e-07 1.42571777847587e-41 -1.19020097255563e-23 -1.15196671965869e-30 -1.35409310002742e-62)
(-0.000101039955243625 1.26890937456186e-10 -1.38845118564361e-42 0.105864808475569 2.31690479722228e-07 -9.06158783614065e-45 0 0 0)
(-0.000104584381687985 1.3966650530549e-10 0 0.10096875034967 2.59926587120139e-07 0 0 0 0)
(-0.000107053423020469 1.49294873778502e-10 0 0.0959489389966303 2.86266242155518e-07 5.32171413896011e-40 0 0 0)
(-0.000108498634878106 1.55805394902276e-10 0 0.0908535951074376 3.10225551464741e-07 5.32404319664127e-40 0 0 0)
(-0.000108982626068196 1.59308525471716e-10 0 0.0857281339540068 3.31412213307956e-07 0 0 0 0)
(-0.000108576699183823 1.59980799843801e-10 0 0.0806147346265447 3.49525270298254e-07 2.18625085384217e-39 0 0 0)
(-0.00010735887065283 1.58056656254699e-10 0 0.0755520288920297 3.64352024482617e-07 2.18730689873797e-39 0 0 0)
(-0.000105411371171238 1.53803412066885e-10 0 0.0705748513399175 3.75763601098186e-07 2.22392585543586e-39 0 0 0)
(-0.000102819199546292 1.47527478494557e-10 0 0.0657141470946203 3.83706208210715e-07 2.22503908636597e-39 0 0 0)
(-9.96674055267015e-05 1.39527096888182e-10 0 0.0609968569312149 3.88196674096907e-07 2.26080452146899e-39 0 0 0)
(-9.60409237087624e-05 1.30140845964921e-10 0 0.056446055220185 3.89306919411256e-07 2.26195422424515e-39 0 0 0)
(-9.20208136848933e-05 1.19634098060725e-10 2.23783825891316e-30 0.0520808651185101 3.87166192668128e-07 7.3025138210585e-32 0 0 0)
(-8.76868042816766e-05 1.08367527499273e-10 8.9556461322491e-30 0.0479169026391567 3.81931536000062e-07 7.45008789801677e-29 2.76589909030166e-17 2.20335664881843e-22 4.30137575613397e-44)
(-8.31105022370568e-05 9.64942151136053e-11 -2.24464780991333e-34 0.0439660045224262 3.73813568614269e-07 2.99780955995597e-28 5.07192898390219e-17 4.31223188566181e-22 3.45810569479727e-43)
(-7.83637566005743e-05 8.4447877623156e-11 -8.95564613220233e-30 0.0402372110815004 3.63009871298889e-07 7.53891867535549e-29 2.31893903235239e-17 2.09328846343187e-22 4.3433783132223e-44)
(-7.35041142426339e-05 7.21306203544705e-11 -2.23761379367571e-30 0.036735844385136 3.49794966853164e-07 -8.76213761487382e-32 0 0 0)
(-6.85958607389421e-05 6.02260032711663e-11 4.10014207286171e-40 0.0334656374543715 3.34354535365976e-07 1.36949754857691e-38 -5.54755866448504e-23 -1.95726206314327e-28 -6.39780632309055e-59)
(-6.36774973858649e-05 4.80885684847933e-11 5.17790915518454e-42 0.0304261566356472 3.17039739447407e-07 1.38039835174619e-38 5.54755866442485e-23 1.95726206312203e-28 6.39780632302114e-59)
(-5.88102047691103e-05 3.70979354931604e-11 5.17582994976521e-42 0.0276174999359083 2.97949739657147e-07 1.38611559429036e-38 4.59186994310779e-23 2.02372733243647e-28 6.47858954882942e-59)
(-5.4005651346737e-05 2.53874073089458e-11 -4.15150982027984e-40 0.0250338817474703 2.77583847665876e-07 4.24527615561589e-39 -4.59186994306633e-23 -2.0237273324182e-28 -6.47858954877093e-59)
(-4.93330564776365e-05 1.60694492667403e-11 -4.15190037237973e-40 0.022674058861505 2.55824393734774e-07 -2.07743380269225e-41 0 0 0)
(-4.47624047535043e-05 4.53680695990033e-12 4.24901321185531e-40 0.0205263979873654 2.33504091198192e-07 2.31089665674566e-41 0 0 0)
(-4.03940460468368e-05 -2.0722541336923e-12 1.70430158851532e-39 0.0185917965396175 2.100347037961e-07 4.46130596377575e-39 -3.12116966892426e-23 -2.05799623848444e-28 -1.66127306709478e-58)
(-3.61257198350158e-05 -1.44456265862616e-11 2.34775961530466e-42 0.0168504134767537 1.86971568100123e-07 1.75089343564406e-38 5.96047477192173e-23 4.104721531266e-28 3.32437793227635e-58)
(-3.21352186416702e-05 -1.64450228142913e-11 -1.27258409383903e-39 0.0153112282308419 1.62761379353015e-07 4.31521563985026e-39 -2.83930510300281e-23 -2.0467252927854e-28 -1.6631048651847e-58)
(-2.81861090778516e-05 -3.20449993550007e-11 4.49491671472874e-42 0.0139400916342527 1.40426121281636e-07 4.43614095177927e-39 2.36865856827627e-23 2.00889180705424e-28 6.73700620504706e-59)
(-2.46242721300956e-05 -2.55416454834209e-11 4.33021134460234e-42 0.0127650124918383 1.16516263023787e-07 4.43642195903903e-39 -2.36865856831836e-23 -2.00889180708993e-28 -6.73700620516677e-59)
(-2.09584718662927e-05 -4.94255637981199e-11 1.31670530107261e-39 0.0117240977126258 9.6824824344311e-08 4.56914825485196e-39 2.01300723709025e-23 1.95039996248434e-28 1.70441531071339e-58)
(-1.78700464747669e-05 -2.63836906912796e-11 1.32074378004252e-39 0.0108851205051318 7.43630458095808e-08 1.80542827883049e-38 -3.88658658414244e-23 -3.88021451502174e-28 -4.43931769258179e-58)
(-1.44079365717354e-05 -6.87359055383207e-11 -1.30821146747328e-39 0.0101313764580453 5.97847691711393e-08 1.79569746044438e-38 3.63474330675965e-23 3.80599912545492e-28 4.44909580869559e-58)
(-1.18359151098555e-05 -1.22903807281678e-11 -1.75679148606808e-39 0.0096078718910534 3.9972404974557e-08 4.39633447009298e-39 -1.76116395973476e-23 -1.87618457294627e-28 -1.71419342685837e-58)
(-8.59386732794856e-06 -8.05818014272405e-11 5.9921804716266e-42 0.00909537409877521 3.34251247922628e-08 1.41397534091575e-42 0 0 0)
(-6.6827672632065e-06 1.78947248735714e-10 2.08122782637095e-45 0.0088659296425536 1.82149830615519e-08 4.58401159675352e-39 1.54962306621514e-23 1.94334312753315e-28 3.48164730610761e-59)
(-8.67980859552491e-06 1.90143476489068e-08 2.33570744909721e-42 0.00853613120842867 3.82316743208851e-08 4.18281450395589e-38 -6.77226777286233e-25 1.48356098394939e-27 1.82239459664018e-61)
(-0.000101457280368716 6.08120525861074e-07 -3.69791277841018e-38 0.00820100687915969 1.37580279031413e-06 3.40210975361165e-36 -1.02729177191203e-21 -1.65157759574911e-25 -4.20022370652361e-55)
(-0.000655884671993551 -2.2671053176456e-06 2.8866390681595e-35 0.00793761361600842 5.46614695234249e-05 2.47189755372247e-36 2.76243053067445e-23 4.44913565493718e-25 4.51956971120801e-54)
(-0.00124549328680544 -2.75952817609049e-05 -4.75730225339951e-35 0.00776590118736697 0.00019872121337647 2.95014845924096e-34 -2.78070611118029e-23 -4.47857007362765e-25 -4.54947010478958e-54)
(-0.00182485404729348 -9.68881413431245e-05 -5.46679753524663e-34 0.00768387635739426 0.00043317922927606 2.66698927495795e-33 0 0 0)
(-0.0022479727363885 -0.000213400000467389 -1.15371774225816e-33 0.00717231415675307 0.000704547405156133 3.69575537385678e-33 2.96849833461146e-20 2.91331823558396e-21 1.52942610454013e-50)
(-0.00249281886356706 -0.00036737721771392 -9.53793806530398e-34 0.00643133505021083 0.000968813871187354 2.45609678322961e-33 0 0 0)
(-0.00242967945077135 -0.000509134954434469 -1.43392079614744e-33 0.00527693870705276 0.00112365444278456 3.37085991614236e-33 9.45435671851164e-24 2.11395309263375e-24 1.65267327565727e-53)
(-0.00208036523392225 -0.00058539932770909 -2.42474436694687e-34 0.0039104098865721 0.00111447554031913 9.86264713657632e-34 -9.80933461286791e-24 -2.1933246077916e-24 -1.71472535354248e-53)
(-0.00145980237766565 -0.000530509229133007 -5.71158134549161e-33 0.00241985617663974 0.000889722608664898 1.20413047372105e-32 2.22055948554555e-20 8.15959436548017e-21 1.09139256777058e-49)
(-0.000703440699397607 -0.000319847131460354 -9.23751379184453e-33 0.00104307439505049 0.000481593644312054 1.36373118998697e-32 -9.82203605484597e-21 -4.53142663513869e-21 -1.28365220891078e-49)
(-0.000112258295704124 -6.78134924851127e-05 -1.14022659045162e-33 0.000137765996230683 8.93391666536453e-05 -1.02238479680726e-34 0 0 0)
(-0.000116525184708728 -3.61225310586574e-05 -2.23971279337502e-33 0.000175651518376223 5.91619625024747e-05 3.08608916648442e-33 0 0 0)
(-0.00123063402967396 -0.000592473639100591 -3.25666801018881e-34 0.0017183293846131 0.000833796897264689 -2.71630171239281e-35 0 0 0)
(-0.00400400211316895 -0.00213500143260767 2.67704363646094e-34 0.00539388610593079 0.00288279479088333 2.03565195906625e-35 0 0 0)
(-0.00886519452259071 -0.00494500083416224 -6.95832713714811e-33 0.0117421288610546 0.00655573956102545 9.04625480430868e-33 -3.02905724883888e-23 -1.77157463326031e-23 -2.61750616313626e-53)
(-0.0158765836890206 -0.00909056186135498 -4.97793836128348e-33 0.0208161400022952 0.0119262124682063 6.07230200991018e-33 3.12583308308634e-23 1.8281749544101e-23 2.70113328595887e-53)
(-0.0251011151735988 -0.0147563437065698 -1.33415440971425e-39 0.0325324567879913 0.0191370837080428 1.37810462307941e-39 0 0 0)
(-0.0372456688186018 -0.0225575370202476 -1.05605024280434e-39 0.0475965801402532 0.0288468881725274 1.33934328731728e-39 0 0 0)
(-0.0528482265745264 -0.0331259494740348 -4.26695469013427e-33 0.0664240382530469 0.0416684816061267 5.32818493193709e-33 0 0 0)
(-0.0740813052889837 -0.0482593920972065 -4.10344220078183e-33 0.0913388867729845 0.0595532173765416 5.02967740747629e-33 0 0 0)
(-0.103229622152306 -0.0701882467982961 -3.76962540891881e-33 0.124597289215122 0.0847871737137645 4.71651022843998e-33 1.2822396453432e-18 8.72526424013364e-19 4.84811322619286e-50)
(-0.148683134712797 -0.105186040551696 -1.49499166851263e-33 0.175875297871223 0.124449858686613 1.91507880497938e-33 0 0 0)
(-0.22388941875222 -0.159199762625456 -1.6905822535772e-33 0.26416595506665 0.187688489827262 1.77522259707329e-33 0 0 0)
(-0.342072525075383 -0.232941749534158 -1.45911872494176e-34 0.412503064668699 0.280367672431752 -2.95865079895599e-36 0 0 0)
(-0.523834207682902 -0.323589406757449 -2.84589362222332e-33 0.663461984602945 0.408521451958845 3.57329851288163e-33 -6.70588590353138e-18 -4.12913124935845e-18 -3.61131434895624e-50)
(-0.796971952302359 -0.417253078596891 8.7095810018317e-35 1.09701967256129 0.571428749829553 -4.93495885956984e-37 -9.29086545944411e-23 -4.06459712763447e-23 -3.82277500488451e-55)
(-1.16108158745232 -0.465739477089693 -8.03988054459958e-34 1.82806114984371 0.727486927159627 1.36927895424479e-33 9.25817239996242e-23 4.05029446484778e-23 3.80932327520815e-55)
(-1.47116829167582 -0.38342399458634 -1.10187353861095e-33 2.8817124349154 0.742028812662625 1.98284144325517e-33 1.28083113919856e-17 3.2977911413385e-18 8.80904030200295e-51)
(-1.23735626560286 -0.156159127733229 -6.80731088320837e-35 3.5232888609686 0.434531528342997 1.05698423261295e-36 3.38833497207806e-22 2.94790976959932e-23 3.40847343068985e-56)
(-0.530267576538617 -0.0239885651963249 -4.39014258081013e-35 2.63063487708258 0.109866053466454 2.28085654925158e-34 -5.29889128999169e-18 -2.21262278212384e-19 -4.59488321975491e-52)
(-0.131502317705534 -0.00163343835677864 -4.9956931250452e-36 1.44191075088227 0.0130049512586686 1.80981069842136e-35 4.89667580533549e-23 2.62889930857055e-25 4.30866058611579e-57)
(-0.0123255998461891 -5.72001648063354e-05 -8.83087453247267e-37 0.624796246721455 0.000364683781341649 7.67217652772574e-39 -4.89044460655033e-23 -2.62555393819499e-25 -4.30317765817095e-57)
(-0.00165408150207562 -5.60599844823694e-07 -5.30675749264387e-44 0.325636892432539 1.45608111616503e-05 2.30893481226231e-46 0 0 0)
(-0.00376889720221928 1.10344064428437e-07 0 0.68115297536562 1.94932725523604e-05 0 0 0 0)
(0.00294202827307178 4.41550441392338e-05 3.0695980738716e-44 0.613602071771431 2.45702019780608e-05 2.89055501483915e-42 0 0 0)
(0.0304867800780834 0.000219973638153589 9.77701441990882e-36 0.47203482010434 0.00188230169150714 1.24122630625268e-37 0 0 0)
(0.0196670280040409 0.000549190801275319 8.91680190945004e-37 0.143966824844271 0.00302014083264898 5.804059018899e-36 9.69157107472173e-20 2.77321558022128e-21 3.70779700290833e-52)
(0.000960806576507179 0.000134581914460988 -1.18534531998706e-34 0.00845911725405405 0.000247006860027436 -3.10149590623286e-34 0 0 0)
(0.00683829828057331 0.00239270978137889 5.29722807191301e-34 0.0125228542902098 0.00427123342331313 7.11993693882392e-34 0 0 0)
(0.0126726088621915 0.00525024127886807 1.75744127874032e-33 0.0199224732140448 0.00811310227011693 2.76206543058659e-33 8.58614286251526e-20 3.47433897393866e-20 2.36116967904321e-50)
(0.0098050009426475 0.00508394727795232 -1.7003544888286e-34 0.0138502870878534 0.00706476619374219 -9.63443830434992e-37 0 0 0)
(0.00658443360518486 0.00399504637077144 -2.69390968745774e-35 0.0085777908418185 0.00514812347005143 -1.04830413274558e-33 8.66406227046736e-20 5.20013652747069e-20 -1.0497437520719e-50)
(0.00441533609928618 0.00296244065171917 1.53066541560266e-33 0.00545272870042 0.0036357459405497 1.84183343263519e-33 1.01711614363245e-19 6.85953111017061e-20 2.39533856230906e-49)
(0.00317685246384506 0.00223704909955305 -5.47271272064104e-34 0.00381395375213282 0.00268028153036703 9.02544578034471e-36 -2.14240256982328e-24 -1.61757502096081e-24 5.0054047773257e-54)
(0.0024060205068106 0.00169413832922273 -1.15829222811873e-33 0.00288010336917888 0.00203114966949265 -1.66439072553606e-33 1.20687165889246e-20 8.64880992627467e-21 7.40001223223348e-50)
(0.00197170335614786 0.00134018798462925 1.27919170912473e-34 0.00239660543983407 0.0016346654030449 8.36427013040085e-35 -3.46039999729417e-20 -2.36817748524941e-20 -2.92331736527866e-50)
(0.0016932153374846 0.00110730006883701 -9.02377943181325e-34 0.00209711908482914 0.00137628178332353 -1.18065213695255e-33 3.00169631759887e-20 1.97543061775123e-20 3.05652747904909e-50)
(0.00148929688925433 0.000940123883774673 1.67921154944163e-33 0.00187704470418531 0.00118865811832196 2.03497038059836e-33 7.69843579389731e-21 4.92101186006412e-21 4.46942388283606e-50)
(0.0013310792355906 0.000816032190988795 2.83017595437782e-33 0.00170260995594651 0.00104663352477103 3.52768692099298e-33 2.40457468162417e-20 1.48185735631418e-20 6.77964278247059e-50)
(0.00120652188067335 0.000722119856262579 2.55283855254154e-33 0.00156199579629693 0.000936919498337452 3.70215863375214e-33 -2.19575373091111e-20 -1.32044117733427e-20 -7.04263969915489e-50)
(0.00109643156941882 0.00064453215165772 1.35304487335162e-33 0.00143289715991995 0.000843710902960883 2.21811454832519e-33 -9.95805796306731e-24 -5.88136495807225e-24 -3.3072906980055e-59)
(0.000993584115998753 0.000575880141832435 -1.19910640540751e-33 0.00130772953379531 0.000759302871132649 -1.56156230607712e-33 6.96243021397973e-25 4.95771831860996e-25 -3.86715902104349e-60)
(0.000880525376364043 0.000498724962269252 2.19968171544852e-39 0.0011716526944212 0.000665892463843405 2.3261637391386e-39 8.67602702277759e-24 5.04224119524451e-24 3.48028955090868e-59)
(0.000769108472488603 0.000415881272918222 3.54245001154947e-33 0.00104587806082599 0.000569117473759988 4.11435831153722e-33 6.97262363620364e-24 3.72183662722335e-24 4.06723067005285e-53)
(0.000660003543731652 0.000331570195233926 -1.17555553424976e-33 0.000929449855823953 0.000471597117581903 -1.64412540731e-33 -3.58770279478296e-21 -1.84969573194403e-21 -5.72803146888696e-50)
(0.00055534145966819 0.000251136092534995 2.71043372243306e-33 0.000822349643685663 0.000377355939027557 4.65436907205793e-33 5.83792666839157e-24 2.86999481486122e-24 3.85471690390393e-53)
(0.000456331300337778 0.000178799389582395 5.5120776396592e-34 0.000723555578668776 0.000289528424038606 -5.00433296941136e-35 0 0 0)
(0.000367347551554688 0.000118943532604272 3.27381225045973e-33 0.00063772919876789 0.00021276086577978 5.30761003719224e-33 -8.07072088649225e-21 -2.7057519919378e-21 -9.35541378296592e-50)
(0.000292592771930661 7.42508528619204e-05 -8.10012581793514e-35 0.000570123212264236 0.000150779456755622 9.10900100008868e-34 -3.49640540418503e-21 -9.28897110867482e-22 -1.22248193068948e-50)
(0.000234967374663369 4.45399619219489e-05 2.2438610440521e-29 0.000525998000925748 0.000105297877561132 4.48190286728557e-29 -5.84053608765697e-24 -1.02685127240835e-24 -3.24977228628487e-49)
(0.000185391126579962 2.46661247947204e-05 2.92868647361481e-30 0.000488676953711659 7.0294019881284e-05 7.53342091425869e-30 -3.2072430216855e-19 -4.63125386060795e-20 -1.27336607684705e-44)
(0.000151735641998661 1.30281979715501e-05 6.97647113878966e-31 0.000489668732896481 4.70041944569848e-05 1.08947357385489e-32 8.25479887047719e-21 7.85032813432091e-22 -2.08278398662169e-46)
(0.000120889803526158 5.73977817001566e-06 6.33646560626831e-30 0.000496550593852862 2.88469788836555e-05 2.67264788762777e-29 3.37969574330255e-19 1.95428266281943e-20 2.63186354456835e-44)
(0.000105793042392639 2.15915316501357e-06 -2.64953059180889e-30 0.000613358642504332 1.80605464102437e-05 2.31482185401867e-31 -5.55110321093898e-24 -2.26551188159505e-25 -4.04287931971757e-49)