/*--------------------------------*- C++ -*----------------------------------*\
| =========                 |                                                 |
| \\      /  F ield         | OpenFOAM: The Open Source CFD Toolbox           |
|  \\    /   O peration     | Version:  4.1                                   |
|   \\  /    A nd           | Web:      www.OpenFOAM.org                      |
|    \\/     M anipulation  |                                                 |
\*---------------------------------------------------------------------------*/
FoamFile
{
    version     2.0;
    format      ascii;
    class       volScalarField;
    location    "30000";
    object      k;
}
// * * * * * * * * * * * * * * * * * * * * * * * * * * * * * * * * * * * * * //

dimensions      [0 2 -2 0 0 0 0];

internalField   nonuniform List<scalar> 
21000
(
4.90905490547643e-06
4.59149635143283e-06
3.53475523240984e-06
8.53537568598481e-07
1.46655196929778e-08
2.68662515625976e-07
3.10108459851553e-07
2.11828517650711e-07
1.37780793824708e-07
9.3092576340819e-08
6.88297720497631e-08
5.3919572910989e-08
4.60263620989424e-08
4.11326635418998e-08
3.75382713224246e-08
3.47422519161479e-08
3.25502193632858e-08
3.04990813606492e-08
2.84101616351169e-08
2.57689753184692e-08
2.30374070738438e-08
2.02333938427363e-08
1.74438935489541e-08
1.47251057039248e-08
1.22681493635473e-08
1.0256767993637e-08
8.82811731960787e-09
7.57189459987669e-09
7.07849228099825e-09
6.55995759594232e-09
7.79255897996075e-09
8.78566294011441e-09
1.71575930151639e-08
3.89114941574038e-08
6.88405125875002e-08
1.1828629865163e-07
1.86280842144498e-07
2.81843278112927e-07
4.04848437771845e-07
5.60189060982353e-07
7.46501963082918e-07
9.64113445421119e-07
1.20955708309827e-06
1.47976911259928e-06
1.7698418661719e-06
2.07512058818173e-06
2.39038264369084e-06
2.71079023435119e-06
3.03157999402667e-06
3.34843573613234e-06
3.65734408874375e-06
3.95471236016323e-06
4.23729086027305e-06
4.50220134297774e-06
4.74689913525617e-06
4.96918107029913e-06
5.16717334536474e-06
5.33933854847359e-06
5.48447556607358e-06
5.60172562977217e-06
5.69057428791737e-06
5.75085339326672e-06
5.78273628111615e-06
5.78672448483267e-06
5.7636328190662e-06
5.71457507836802e-06
5.64092869236343e-06
5.5443063065791e-06
5.42652071607449e-06
5.28954715767758e-06
5.1354840711048e-06
4.96651340136636e-06
4.78486152374378e-06
4.59276187587248e-06
4.39241999746193e-06
4.18598189847514e-06
3.97550604062622e-06
3.76293966534942e-06
3.55009898561754e-06
3.33865471226889e-06
3.13011996984648e-06
2.92584558242952e-06
2.72701364556652e-06
2.53464342971257e-06
2.34958562116407e-06
2.17254292361275e-06
2.0040543974884e-06
1.84454260078533e-06
1.69426530680118e-06
1.55341947237709e-06
1.42201082344303e-06
1.30008490772077e-06
1.18740737760151e-06
1.08397724368734e-06
9.89288642920326e-07
9.03457344713246e-07
8.25584268265823e-07
7.56185415948509e-07
6.93665396529563e-07
6.39467322395296e-07
5.90641295660521e-07
5.50558219170069e-07
5.13601892022326e-07
4.86872885458067e-07
4.59806697134963e-07
4.45544307350989e-07
4.25570850954436e-07
4.03133733395089e-07
3.91620863732226e-07
3.93677866509792e-07
4.06626920547982e-07
4.0287233042108e-07
3.89862850096305e-07
3.5384290257879e-07
3.01181182330102e-07
2.3281063165198e-07
1.57224951575749e-07
8.98157205701523e-08
6.8607029822455e-08
1.68472124668471e-07
3.71723484067292e-07
7.07467389832464e-07
1.16947902385545e-06
1.74613074945666e-06
2.46857313968199e-06
3.34733273643629e-06
4.48945633155661e-06
5.98090712624912e-06
8.2414013335746e-06
1.19338784476086e-05
1.76127996267462e-05
2.62553449684102e-05
3.9516599445971e-05
5.88721632102931e-05
8.16725245702462e-05
8.65285463095685e-05
5.6510114031459e-05
2.82999833053472e-05
1.14356038570635e-05
5.83439566981065e-06
1.58810616459824e-06
1.43955595453455e-06
1.09661700915246e-06
4.58951694033003e-07
1.35212485956594e-07
7.28825176522746e-08
5.22970530515617e-08
3.34915344330603e-08
2.19871591546396e-08
1.5193765339467e-08
1.14143391631938e-08
9.04706449719613e-09
7.771718097479e-09
7.00727633889705e-09
6.48141388405452e-09
6.11646741589343e-09
5.88427916226184e-09
5.71212161700798e-09
5.56373417042883e-09
5.35271461106975e-09
5.14465638333462e-09
4.94615346690652e-09
4.76665355638278e-09
4.61368450945756e-09
4.52156273560842e-09
4.53348671522182e-09
4.68096528708266e-09
4.90381845984605e-09
5.31212924116936e-09
5.83496902500287e-09
6.83312836301312e-09
8.23426436474693e-09
1.17671674197174e-08
1.89957186557172e-08
2.88026646138795e-08
4.30858872447444e-08
6.2154001379801e-08
8.76476444785307e-08
1.19879194293546e-07
1.59801172243685e-07
2.07411954740639e-07
2.62862140998013e-07
3.25691201170027e-07
3.95424149545314e-07
4.71271904389326e-07
5.52438620466888e-07
6.38020231702857e-07
7.27147239905485e-07
8.18948130304917e-07
9.1260488899604e-07
1.00733419001766e-06
1.102403522e-06
1.19711932183718e-06
1.29082967845189e-06
1.38291807553965e-06
1.47280401747043e-06
1.55994148135759e-06
1.64382062657019e-06
1.72396906516535e-06
1.79995459668838e-06
1.8713882003316e-06
1.93792865157295e-06
1.99928626914957e-06
2.05524586511726e-06
2.10558615518256e-06
2.15016385584808e-06
2.18889843268884e-06
2.22176200847911e-06
2.24877711671606e-06
2.27001361682211e-06
2.28558488115849e-06
2.29564337557926e-06
2.3003757746853e-06
2.29999777915859e-06
2.2947487544059e-06
2.28488635624315e-06
2.27068123789203e-06
2.25241198558354e-06
2.23036028090643e-06
2.20480656541092e-06
2.17602581535437e-06
2.14428425252327e-06
2.10983570483778e-06
2.072919672561e-06
2.03375774429345e-06
1.99255381239951e-06
1.94948923545986e-06
1.90472700449543e-06
1.8584025633837e-06
1.81063635767337e-06
1.76151346178238e-06
1.71111466255552e-06
1.65946987155786e-06
1.6066304880393e-06
1.55256347186714e-06
1.49731450991384e-06
1.44077159678963e-06
1.38302567427397e-06
1.32385101713071e-06
1.2634874087147e-06
1.20152483288973e-06
1.13854997376155e-06
1.07385798243714e-06
1.00867182664324e-06
9.41695303129162e-07
8.73900932446966e-07
8.01609549603311e-07
7.27357293951354e-07
7.06801647856396e-07
7.38258156723007e-07
8.0360608103479e-07
8.87874053680479e-07
9.87325482307478e-07
1.09633132694439e-06
1.21299251200969e-06
1.34312755363782e-06
1.48703381816188e-06
1.63814950382978e-06
1.79390896721019e-06
1.95842111144399e-06
2.12400264381781e-06
2.27721199825187e-06
2.40153412970451e-06
2.50578309299957e-06
2.61121617785638e-06
2.73341428439369e-06
2.90183388378698e-06
3.14496330187269e-06
3.57937167522474e-06
4.33214940304893e-06
5.49311886623523e-06
7.23202112712255e-06
9.83670625621843e-06
1.35254867531738e-05
1.75881249724001e-05
1.79697092609558e-05
1.22817489257384e-05
6.73217849883649e-06
3.24257893136892e-06
1.92898052939281e-06
6.67892385419344e-06
5.90371141306847e-06
4.45171066316305e-06
2.50393676178995e-06
9.9534883166279e-07
2.76053125929404e-07
7.02197901292605e-08
2.76719323210456e-08
1.89543265954301e-08
1.54512005704018e-08
1.29931660367077e-08
1.11130197561199e-08
9.96942867865043e-09
9.40712024207487e-09
9.23413774688322e-09
9.41972361113051e-09
9.95652162199037e-09
1.07831095896396e-08
1.18157479013331e-08
1.29564688044331e-08
1.42261819006273e-08
1.56462059101098e-08
1.71994108608098e-08
1.88851598892521e-08
2.07605640568368e-08
2.29502094194758e-08
2.55376027600714e-08
2.85073232514566e-08
3.20643851142075e-08
3.65015429849659e-08
4.2665298424751e-08
5.20678291394898e-08
6.95258202037976e-08
1.004253411882e-07
1.41993281839636e-07
1.96553751876357e-07
2.67329801456788e-07
3.57169929368556e-07
4.68500162253747e-07
6.03335138728946e-07
7.6306812719876e-07
9.4849090234332e-07
1.15977741441767e-06
1.39658537020178e-06
1.65814490763027e-06
1.94337665107557e-06
2.25098253804791e-06
2.57952310362843e-06
2.92746498920738e-06
3.29320899192796e-06
3.67509908133824e-06
4.07142097278335e-06
4.48039421348154e-06
4.9001632160375e-06
5.3287899515494e-06
5.76425057075779e-06
6.20443648412807e-06
6.64715987811635e-06
7.09016326596546e-06
7.53113358124491e-06
7.96772232553237e-06
8.39757786785515e-06
8.81837759687095e-06
9.22810768894732e-06
9.6242052773259e-06
1.0004468484802e-05
1.036688139644e-05
1.07095750381531e-05
1.10308469949349e-05
1.13291774631062e-05
1.16032414901415e-05
1.18519171978703e-05
1.20742899190602e-05
1.22696523704571e-05
1.24375010213915e-05
1.25775289382438e-05
1.26896155065229e-05
1.27738133703942e-05
1.28303330631171e-05
1.2859525872729e-05
1.28618650373301e-05
1.28379263138877e-05
1.27883676596688e-05
1.27139089285857e-05
1.26153112134661e-05
1.24933573920476e-05
1.23488322519634e-05
1.21825051390044e-05
1.1995111230722e-05
1.17873381468768e-05
1.15598082757789e-05
1.13130726742856e-05
1.10475928225762e-05
1.07637515820017e-05
1.04618235326472e-05
1.01420310819868e-05
9.80446714773029e-06
9.44928036590628e-06
9.0764337214481e-06
8.68622878741725e-06
8.2786482544369e-06
7.85458564438205e-06
7.41456844882198e-06
6.96037786417842e-06
6.4932794025691e-06
6.00705903844152e-06
5.49540904684846e-06
4.97885117884705e-06
4.84737250957335e-06
5.08313807692163e-06
5.56182021681042e-06
6.20070508949654e-06
6.96367620125645e-06
7.82255901715026e-06
8.75672512690703e-06
9.8061975336693e-06
1.09600964800174e-05
1.21527745141916e-05
1.33252254849781e-05
1.44323704458064e-05
1.54347009573032e-05
1.62037301570952e-05
1.66325023599747e-05
1.68011800953262e-05
1.68330450321947e-05
1.68306717774544e-05
1.69014828587516e-05
1.71672399729075e-05
1.80453577673813e-05
1.97827465954739e-05
2.24701963928132e-05
2.63454055567841e-05
3.18255775562846e-05
3.9034556410857e-05
4.56268806937968e-05
4.36623916704727e-05
3.25351567643115e-05
2.0553772910744e-05
1.2157111619461e-05
8.2418434847226e-06
2.46476363114441e-05
2.17267085698487e-05
1.637643895538e-05
9.41009135352673e-06
3.83301652446093e-06
1.05047419016482e-06
2.3588435524437e-07
7.70265345872766e-08
5.23599885100103e-08
4.54318866783732e-08
3.97293907549139e-08
3.47704495199317e-08
3.15269615716565e-08
3.00301111129981e-08
2.98298729899177e-08
3.08819001671615e-08
3.31878258479226e-08
3.65850539422972e-08
4.0788698723184e-08
4.55052213283927e-08
5.07409119606731e-08
5.65678831655299e-08
6.29117553302821e-08
6.97594059751835e-08
7.72906713096167e-08
8.59374318386725e-08
9.60055853225692e-08
1.07512872667238e-07
1.21160198044739e-07
1.38188120122741e-07
1.61611756612999e-07
1.97524227948477e-07
2.62836211226502e-07
3.7686926972467e-07
5.30532167711505e-07
7.3091528370633e-07
9.9025379978344e-07
1.31804579447229e-06
1.72349405941489e-06
2.21352082220122e-06
2.79358077193577e-06
3.46660567910642e-06
4.23372657696399e-06
5.09406258815378e-06
6.04537835811069e-06
7.08423306321806e-06
8.20644139871615e-06
9.4072302065438e-06
1.06814620990625e-05
1.20236880495343e-05
1.3428201659737e-05
1.48890166430706e-05
1.6399847738142e-05
1.79540726187929e-05
1.9544709627935e-05
2.11644039060875e-05
2.28054333010811e-05
2.44597283332963e-05
2.61189084167324e-05
2.77743343648068e-05
2.94171840353552e-05
3.10385776203368e-05
3.26297213704889e-05
3.41829529203169e-05
3.56882510784498e-05
3.71372446767821e-05
3.85221032654782e-05
3.98355188306334e-05
4.10707852342093e-05
4.22218642626986e-05
4.32834374845842e-05
4.42509429944853e-05
4.51205966263847e-05
4.58893979481197e-05
4.65551215347335e-05
4.71162944512387e-05
4.75721614155135e-05
4.79226388240342e-05
4.81682594884313e-05
4.83101099454269e-05
4.83497610698573e-05
4.82891953135497e-05
4.81307307241918e-05
4.78769434084253e-05
4.75305900163304e-05
4.70945314879266e-05
4.65716595360833e-05
4.59648250772384e-05
4.52767727439196e-05
4.45100776577843e-05
4.36670931464364e-05
4.27499008254486e-05
4.17602768097571e-05
4.06996759866003e-05
3.9569198894458e-05
3.83696838403211e-05
3.71015832974828e-05
3.57654170172174e-05
3.43612083663457e-05
3.28899641226108e-05
3.13519004587158e-05
2.97500699973179e-05
2.80870004107997e-05
2.63687392108801e-05
2.46013204444928e-05
2.27600995045217e-05
2.08304927563475e-05
1.89108598089449e-05
1.84498695608997e-05
1.93664232302142e-05
2.12155794670419e-05
2.36866714462624e-05
2.6637934318682e-05
2.99620408505352e-05
3.35799163821877e-05
3.76349154628806e-05
4.20690184653209e-05
4.66295180163002e-05
5.10887091841736e-05
5.52656167226686e-05
5.90063523345966e-05
6.18254998090765e-05
6.33494476015082e-05
6.38959813916326e-05
6.39211266378787e-05
6.38114838517073e-05
6.39620991535864e-05
6.48421851155019e-05
6.79554305866273e-05
7.41007996307718e-05
8.35383810352791e-05
9.70182933760183e-05
0.000115811605207431
0.000139970816125267
0.000160827696027674
0.000152123696702245
0.000114483703245219
7.35746471371229e-05
4.44368387095609e-05
3.04507313178872e-05
6.63354745306182e-05
5.83947400127483e-05
4.40538033061268e-05
2.54796880996248e-05
1.05150076957301e-05
2.9387934185712e-06
6.64681741516669e-07
2.08562248276664e-07
1.37862504382789e-07
1.20147072073445e-07
1.05760301265416e-07
9.28817347014704e-08
8.42195027256186e-08
8.01395115292151e-08
7.95481469617385e-08
8.23284910615272e-08
8.84962694587686e-08
9.76431428063313e-08
1.0902782248081e-07
1.21885235508928e-07
1.36187768530626e-07
1.52117131013752e-07
1.6947652401446e-07
1.88220461330344e-07
2.08799588420778e-07
2.32332921998154e-07
2.59667695713807e-07
2.90915317450733e-07
3.27966645655272e-07
3.74247915467985e-07
4.37982998907462e-07
5.35901589617844e-07
7.12652453948636e-07
1.01938639251554e-06
1.43363366471662e-06
1.97381981598536e-06
2.67266316161023e-06
3.55534621730618e-06
4.64662547903151e-06
5.96486513019299e-06
7.52470230501482e-06
9.33388544189972e-06
1.13954611514031e-05
1.37070443060194e-05
1.62626910205125e-05
1.90532186162107e-05
2.20674827408907e-05
2.529275903022e-05
2.87153560365247e-05
3.23207389589121e-05
3.60936795787271e-05
4.00181891092829e-05
4.40774690468994e-05
4.82538069361715e-05
5.25285178988511e-05
5.6881907046585e-05
6.12932860896758e-05
6.57410268567724e-05
7.0202658571074e-05
7.46550084557543e-05
7.90744027329053e-05
8.34370189457446e-05
8.77195393386867e-05
9.19002559166423e-05
9.59528319809597e-05
9.98549220763633e-05
0.000103585460953637
0.000107124775885895
0.000110454800185891
0.000113559251139394
0.000116423770085232
0.000119036022151938
0.000121385754499109
0.000123464813853619
0.00012526712462755
0.000126788630065906
0.000128027200315141
0.000128982510531247
0.000129655893975323
0.000130050174989327
0.000130169483866111
0.000130019062411452
0.000129605060724003
0.000128934329484621
0.000128014212149403
0.000126852340286682
0.000125456435906742
0.000123834119318239
0.000121992731780419
0.000119939166969384
0.000117679725581981
0.000115219987794789
0.000112564706848722
0.000109717790847951
0.000106682166748818
0.00010346010302928
0.000100052744576601
9.64615419907646e-05
9.26863866349492e-05
8.87301298226143e-05
8.45929690882121e-05
8.02834436402913e-05
7.58075897391392e-05
7.11824270759987e-05
6.64235570262231e-05
6.14669568831475e-05
5.62889896121844e-05
5.12068300120626e-05
5.00595514238696e-05
5.25907269903886e-05
5.76663467004584e-05
6.4449484423024e-05
7.25471122861391e-05
8.16639036433706e-05
9.1585437381527e-05
0.000102673516968672
0.000114731055506211
0.000127075549397309
0.000139098574852737
0.000150312085869236
0.000160286224877001
0.000167735990467117
0.000171737866056293
0.000173173268796052
0.000173247950281065
0.00017300027241976
0.000173497586509642
0.000176052982966266
0.000184639479157795
0.000201272283671677
0.000226611616552128
0.000262591385542609
0.000312328614624296
0.000375305999258537
0.000428021798220333
0.000403203276270701
0.000304137471315972
0.000196521861004655
0.000119424276731276
8.20112611466486e-05
0.000146290611333387
0.000128604997168734
9.71936026449453e-05
5.65468419913672e-05
2.36210515332685e-05
6.74672842393347e-06
1.55628820074315e-06
4.79041396717794e-07
3.07022403800183e-07
2.66442760736454e-07
2.35085465333779e-07
2.06697981540367e-07
1.87197154233887e-07
1.77731272247254e-07
1.7603264516217e-07
1.81812044394236e-07
1.95114897395239e-07
2.15075928225411e-07
2.4010834181816e-07
2.68548851649834e-07
3.00270936520578e-07
3.3564831691678e-07
3.74261152645076e-07
4.15992025405245e-07
4.61772796587606e-07
5.13982038417711e-07
5.74541311508978e-07
6.43810924254927e-07
7.26005940122469e-07
8.28814343305761e-07
9.70698775111025e-07
1.18909543667115e-06
1.58098792657737e-06
2.25737212739884e-06
3.17275340519732e-06
4.3671173689855e-06
5.91190058583414e-06
7.86222408281768e-06
1.02723824733783e-05
1.31823715630014e-05
1.66239889082413e-05
2.06137756078918e-05
2.51579734095161e-05
3.02508934450408e-05
3.58791044639766e-05
4.20221217034519e-05
4.86552324882345e-05
5.57503178092187e-05
6.32771959346755e-05
7.12038800453856e-05
7.94969016410016e-05
8.81211554520066e-05
9.70397887001714e-05
0.000106213969738085
0.000115602759327266
0.000125163027876267
0.000134849492221837
0.000144614832804392
0.000154409905843953
0.000164184050485249
0.00017388552425216
0.000183462255505625
0.000192864004685527
0.000202040473452361
0.000210935958224174
0.000219501834429588
0.000227692080987264
0.00023546371187088
0.00024277723843503
0.000249597055987128
0.000255891748361092
0.000261634305128378
0.000266802248937215
0.000271377674652905
0.000275347203022015
0.000278701854118501
0.000281436848918208
0.000283551345675538
0.000285048121838451
0.000285933211913399
0.000286215505688193
0.000285906325847418
0.000285018986083317
0.000283568339002047
0.000281570323105827
0.000279041516719208
0.000275998705276155
0.000272458462984747
0.000268436760339114
0.000263948601692711
0.000259007691128257
0.000253626176347166
0.000247814366187047
0.000241580767495108
0.000234931641579907
0.000227871942506384
0.000220403892173882
0.000212530754647326
0.000204251689206226
0.00019557329250034
0.000186494738471097
0.000177035656451733
0.000167206831814119
0.000157047774020344
0.000146590318460389
0.000135700811038351
0.000124353086117782
0.000113342952760258
0.000111010644933638
0.000116708669283322
0.000128068112467207
0.000143248231995799
0.000161359427391727
0.000181736807953584
0.000203903281855275
0.000228596820818073
0.000255299969420567
0.000282515730354182
0.000308924357587481
0.000333460449836699
0.00035515028554813
0.000371237058134267
0.00037986739922725
0.000383013705666513
0.000383273269192179
0.000382918702257486
0.000384307070784737
0.000390426317304119
0.0004098375538844
0.000446723738754069
0.000502464986448204
0.000581128671606207
0.00068892326419813
0.000823391131329455
0.000933040951912026
0.000877116129631548
0.000663711819031132
0.000431236240419382
0.000263462354320209
0.000181087753617983
0.000282926860910346
0.000248343046357542
0.00018819039354033
0.000110226954103662
4.66173292907454e-05
1.36045207148363e-05
3.20392827635957e-06
9.72030686786988e-07
6.03250742868897e-07
5.20076652129727e-07
4.5957137252313e-07
4.04424049333978e-07
3.65778585281618e-07
3.46432931011848e-07
3.42264176437484e-07
3.52648562235962e-07
3.7769044808338e-07
4.15776938147501e-07
4.63929584993916e-07
5.18972366699088e-07
5.80548347435009e-07
6.49325743910215e-07
7.24521244462405e-07
8.05878923700628e-07
8.95087658500293e-07
9.96577903033374e-07
1.11415788764405e-06
1.24874638352438e-06
1.40859906699331e-06
1.60885425223386e-06
1.88588885946317e-06
2.31318861594153e-06
3.07579881479727e-06
4.38474373518857e-06
6.15953403331109e-06
8.47667373046671e-06
1.1472745966776e-05
1.52534977589169e-05
1.99229011064723e-05
2.55569771494912e-05
3.22156711045237e-05
3.99293734458694e-05
4.87086042647421e-05
5.85410132370718e-05
6.93995153717359e-05
8.12436797561675e-05
9.40251661809076e-05
0.000107689303262511
0.000122177641482467
0.000137428427018656
0.000153377196743972
0.000169956465099272
0.000187095498396475
0.000204719864855738
0.000222751183508514
0.000241106964342894
0.000259700678085678
0.000278441979856119
0.000297237111537514
0.000315989487661058
0.000334600533233608
0.00035297080849531
0.000371006113931213
0.000388605315493577
0.000405665988428223
0.000422095769832438
0.000437807063788841
0.000452718040123955
0.000466753502793156
0.000479845619006856
0.000491934494034458
0.000502968581725332
0.000512904926012756
0.000521709236484103
0.000529355803004866
0.0005358272591764
0.000541114210154123
0.000545214737155868
0.000548133798908135
0.000549882549133495
0.000550477578489877
0.000549940116545876
0.000548295196138298
0.000545570796811838
0.000541796985582868
0.000537005069357722
0.000531226770840601
0.000524493432274111
0.000516835260803697
0.000508280643054099
0.000498855482287385
0.000488582741270468
0.000477481817795617
0.00046556874238236
0.000452855063319262
0.000439350064970293
0.000425057258476194
0.000409982852488494
0.000394123783273972
0.000377493104702543
0.000360086322969814
0.000341942501143168
0.000323076768362091
0.000303568723590916
0.000283474393810518
0.000262551888168605
0.000240786083729565
0.000219855075581762
0.000215685945814685
0.000226880947903788
0.000249085747208552
0.000278758345314432
0.000314135816847173
0.000353906416271933
0.000397136539041224
0.000445127332629675
0.000496735145928084
0.000549101753141979
0.000599734750545036
0.000646609326304003
0.000687812605464888
0.000718208251959742
0.000734559369555487
0.000740680804334739
0.000741450689300927
0.000741207544053888
0.000744495219214011
0.000757222123453293
0.000795457252199555
0.000866791093820974
0.000973700837381561
0.0011235357224427
0.00132686261157054
0.00157655775749256
0.00177534415483752
0.00166782350824029
0.00126825701559576
0.000829848404732629
0.000510172267860137
0.000350891443673977
0.000498949815879662
0.000437184819373755
0.000332491168953335
0.000196304027862254
8.41075148777701e-05
2.50710618122792e-05
6.02374228822087e-06
1.80504763181132e-06
1.08346807010353e-06
9.26511316007515e-07
8.19736486497486e-07
7.22008684657737e-07
6.52162359735126e-07
6.16118989530822e-07
6.07100216205593e-07
6.23906378315107e-07
6.66750151012796e-07
7.32893028995727e-07
8.17240198858059e-07
9.14265705044437e-07
1.023155911784e-06
1.14498813381639e-06
1.2784301582894e-06
1.42298593014567e-06
1.58144294023594e-06
1.76132125064939e-06
1.96947887706721e-06
2.20794552259809e-06
2.49148377586976e-06
2.84734778275849e-06
3.34093551351223e-06
4.10398076321937e-06
5.45885475478584e-06
7.77094663817823e-06
1.09109347994749e-05
1.50126831609666e-05
2.03139058642285e-05
2.69991065939493e-05
3.52488339008402e-05
4.51938252493125e-05
5.69357834850782e-05
7.05243173243441e-05
8.59740679795566e-05
0.000103259932108498
0.000122331397380051
0.000143115184266588
0.000165524716590331
0.000189462900657116
0.000214826496195379
0.000241506902871687
0.000269391127860057
0.000298361206429397
0.000328293772996624
0.000359059263334559
0.000390521465084925
0.000422537236871463
0.000454956627669717
0.000487623265415203
0.000520375048310827
0.000553045150533884
0.000585463591741894
0.000617459466666914
0.000648868076322289
0.000679511728861981
0.000709218103684881
0.000737828262558794
0.000765191340686325
0.000791166395329504
0.0008156238758468
0.000838446862238921
0.000859532041310275
0.000878790403993259
0.000896147655906419
0.000911544346404907
0.000924935724450752
0.000936291337742274
0.000945594401208274
0.000952840955327089
0.000958038848750502
0.000961206576669073
0.00096237198931951
0.000961570930355556
0.000958845810034774
0.000954244138778289
0.000947817055329273
0.00093961786949273
0.000929700644760578
0.000918118822940196
0.000904923915257832
0.000890164318294453
0.00087388413377468
0.000856122410879014
0.000836911934783874
0.000816279752460775
0.000794244798161289
0.000770822433781585
0.000746016996142868
0.000719838674824184
0.000692278926340655
0.000663360494179942
0.000633069436545569
0.000601475324362781
0.000568593206047834
0.000534566977396483
0.000499484776840876
0.000462951832702846
0.000424979129783947
0.00038867080031937
0.000381820658287871
0.000401751875368818
0.000441133396874882
0.000493763892031499
0.00055646311482537
0.000626873423848488
0.000703327147608841
0.000787879280029335
0.000878300112081608
0.000969657906854901
0.00105769634431533
0.00113893506450909
0.00120999121297277
0.00126223484360928
0.00129055118817374
0.00130156104884321
0.00130355606694087
0.0013040362168804
0.00131093848652369
0.00133480547422606
0.00140291293771149
0.00152774657005419
0.00171323311237426
0.00197114586316124
0.00231729196738766
0.00273533319614952
0.00306079762225743
0.00287706356592798
0.0022026890112268
0.00145423657743762
0.000901008128327912
0.000620320023840185
0.000821721306227463
0.000718542052009337
0.000548960828368693
0.000327191084412421
0.000142166183380785
4.32832262124345e-05
1.05978762565269e-05
3.14101292048969e-06
1.82130969581651e-06
1.54248862929287e-06
1.366122117898e-06
1.20444090683221e-06
1.08658895148723e-06
1.02392714792636e-06
1.00617228724415e-06
1.03121791759464e-06
1.09946512193597e-06
1.20658034859186e-06
1.3444282387695e-06
1.50403773126397e-06
1.68378399172821e-06
1.8852671324598e-06
2.1063696370145e-06
2.34621087461673e-06
2.60908471362124e-06
2.90691133420264e-06
3.25119276745888e-06
3.6459868796694e-06
4.11599633634137e-06
4.70720969883876e-06
5.52956174568963e-06
6.80406637266673e-06
9.05591252128229e-06
1.2875261010038e-05
1.80687923648685e-05
2.48556466667859e-05
3.36213171692815e-05
4.46652343913607e-05
5.82781300664609e-05
7.46677837628013e-05
9.39926476648837e-05
0.000116325656002187
0.000141682390254089
0.000170014397208888
0.000201232668584585
0.000235212411251134
0.000271808330768693
0.000310859195567777
0.000352194728527693
0.000395636799641622
0.000441000839703988
0.000488094834130586
0.000536718553118353
0.000586662235384354
0.000637705838884568
0.000689618587571272
0.00074215916759917
0.000795076365717647
0.000848110184472868
0.000900993427965539
0.000953454318346281
0.00100522148086414
0.00105602395933761
0.00110557893934319
0.00115361583365359
0.00119988149370422
0.00124413566248004
0.00128615395685771
0.0013257301552551
0.00136267812605597
0.00139683334260291
0.00142805396053571
0.00145622144591922
0.00148124076315993
0.00150304013613367
0.00152157040844372
0.00153680404370313
0.00154873379722047
0.00155737111339077
0.00156274429637834
0.00156489647641488
0.00156388346384473
0.00155977150049421
0.00155263494214346
0.00154255393236163
0.00152961208837802
0.00151389425195409
0.00149548429098841
0.00147446300448536
0.00145090622139479
0.00142488286215957
0.00139645375984327
0.00136566950776158
0.00133257157728641
0.00129718776071099
0.00125954060750698
0.00121963308706447
0.00117747946151793
0.0011330590786955
0.0010864071954077
0.0010374889247271
0.000986417245215596
0.000933194567334309
0.000878059019383001
0.000821135203820324
0.000761829248438647
0.00070018263471718
0.000641359073301419
0.000630701331946074
0.000663570400390312
0.000728381826217774
0.000815018689160029
0.000918134569839237
0.00103377820100727
0.00115917388138154
0.00129728345521795
0.00144416506293218
0.00159196513239368
0.00173396245495317
0.00186463006831909
0.00197846426007535
0.00206210063059102
0.00210805386341522
0.00212685825826131
0.00213154332756094
0.00213410678585849
0.00214738881189043
0.00218874858548648
0.00230099589595944
0.00250315228399706
0.00280078641858878
0.00321089350924548
0.00375446797644437
0.00439930893428366
0.00489100278639008
0.00460526322543276
0.00355649914230945
0.00237409200332608
0.00148518818135823
0.00102440912838777
0.00128330138843862
0.0011196530549924
0.000860096951324045
0.00051840027155402
0.000228755882917765
7.11647411446408e-05
1.77351529491712e-05
5.20451745228557e-06
2.91164672244866e-06
2.43806666134648e-06
2.16098303668965e-06
1.90734971017997e-06
1.7187856219672e-06
1.6155245165969e-06
1.58299856208793e-06
1.61777493510685e-06
1.72057077803344e-06
1.88489730211498e-06
2.09843484716027e-06
2.34737783286796e-06
2.62876942849276e-06
2.94482650530265e-06
3.29235194712336e-06
3.66988694322717e-06
4.0837085573591e-06
4.5517535384297e-06
5.0922876091011e-06
5.712843295313e-06
6.45274680278468e-06
7.3859232118799e-06
8.6879993357628e-06
1.07115669677383e-05
1.42692748108781e-05
2.0264303435695e-05
2.84233190191663e-05
3.90867662930484e-05
5.28457683830863e-05
7.01586990905892e-05
9.14656640486324e-05
0.000117075648924815
0.000147217820152595
0.000181988686851049
0.000221395913659743
0.000265350167030596
0.000313701399003625
0.000366247024785364
0.000422755091573935
0.000482971333080589
0.000546629308835731
0.000613452064255078
0.000683153999379036
0.000755439215500552
0.000830000213769183
0.000906515861629767
0.000984650234164507
0.00106405195508996
0.00114435453559677
0.00122517740527703
0.00130612765822274
0.00138680242465994
0.00146679224163819
0.00154569175244529
0.0016230815016848
0.00169854340518583
0.00177167693251702
0.00184210431466101
0.00190946752562854
0.00197343262907244
0.0020336930720559
0.00208997244605737
0.00214202663344833
0.00218964530875922
0.00223265278141139
0.00227090819652491
0.00230430511597461
0.00233277051938411
0.00235626328621547
0.00237477220443378
0.00238831358602609
0.00239692855671281
0.00240068005100597
0.00239964964499807
0.00239393424305604
0.00238364265654853
0.00236889217197027
0.0023498051208262
0.00232650554854922
0.00229911593314566
0.00226775404935008
0.0022325301150548
0.00219354379783532
0.00215088250879811
0.00210461778933728
0.00205480746768167
0.00200148746835509
0.0019446865064314
0.00188440030930707
0.00182064466410138
0.00175337406571415
0.00168263667451641
0.00160835524121007
0.00153069838033863
0.00144962842626891
0.00136551012369817
0.00127849701029807
0.00118775578029612
0.00109333307952796
0.00100306796684508
0.000987035192046816
0.00103790308209239
0.00113822804863947
0.00127239837650458
0.00143191556253924
0.00161051736367895
0.00180385365979567
0.00201584549931045
0.00224008126525124
0.00246486859235844
0.00268027098859357
0.00287807985818053
0.00304995201213509
0.00317656658528673
0.00324762801383645
0.00327868864550886
0.0032889046751626
0.00329626156783045
0.00332024882260569
0.00338760486991521
0.00356129774696471
0.00386851448807296
0.00431632170676582
0.00492694596930714
0.00572498356985977
0.00665377334114647
0.00734844979789039
0.00693849963439911
0.00541539626406213
0.00366295999904441
0.00231846289772062
0.00160419859244699
0.00191987470902133
0.00167108495302428
0.00129190352795701