/*--------------------------------*- C++ -*----------------------------------*\
| =========                 |                                                 |
| \\      /  F ield         | OpenFOAM: The Open Source CFD Toolbox           |
|  \\    /   O peration     | Version:  4.1                                   |
|   \\  /    A nd           | Web:      www.OpenFOAM.org                      |
|    \\/     M anipulation  |                                                 |
\*---------------------------------------------------------------------------*/
FoamFile
{
    version     2.0;
    format      ascii;
    class       volScalarField;
    location    "30000";
    object      nut;
}
// * * * * * * * * * * * * * * * * * * * * * * * * * * * * * * * * * * * * * //

dimensions      [0 2 -1 0 0 0 0];

internalField   nonuniform List<scalar> 
21000
(
1.23585498553924e-10
1.15646469360786e-10
8.88456874486376e-11
2.11119987867875e-11
3.45644766628465e-13
5.90098263658318e-12
6.51797070788522e-12
4.41899567122512e-12
2.94559643084378e-12
2.09072910409647e-12
1.65695932608116e-12
1.41499440777104e-12
1.32911381842257e-12
1.30056890652455e-12
1.29101873546748e-12
1.29180524947571e-12
1.30126348413684e-12
1.30425411444182e-12
1.29378463533529e-12
1.24988596363143e-12
1.19553109138258e-12
1.12824066822566e-12
1.0491142686583e-12
9.58232116966865e-13
8.65822464106053e-13
7.8447446340616e-13
7.2688817040304e-13
6.6535607426529e-13
6.57025782003998e-13
6.35487237847185e-13
7.77000206739122e-13
8.87729307787615e-13
1.7300897891552e-12
3.91838881204568e-12
6.93224200480925e-12
1.19114343709993e-11
1.87584872445415e-11
2.8381627826905e-11
4.0768251603266e-11
5.64110576249861e-11
7.51727731245725e-11
9.708625662804e-11
1.21802438999144e-10
1.49012799117356e-10
1.78223134649563e-10
2.08964711528251e-10
2.40711610231292e-10
2.72976664303378e-10
3.05280202625933e-10
3.37187585084645e-10
3.68294665019787e-10
3.98239658290523e-10
4.26695321031456e-10
4.53371813805682e-10
4.78012887997555e-10
5.00396684678103e-10
5.20334511889656e-10
5.37671552232186e-10
5.52286853564362e-10
5.64093937908373e-10
5.73040999987418e-10
5.79111107383393e-10
5.82321714973897e-10
5.82723327186104e-10
5.80397995875889e-10
5.75457880178739e-10
5.68041687285441e-10
5.58311810631169e-10
5.46450798712486e-10
5.32657557914875e-10
5.17143401158017e-10
5.00128050347275e-10
4.81835701518648e-10
4.62491261889553e-10
4.42316829357612e-10
4.21528507176252e-10
4.00333582490402e-10
3.78928142562884e-10
3.57495080089439e-10
3.36202635699375e-10
3.15203181079973e-10
2.94632744259188e-10
2.74610362298721e-10
2.55238675770061e-10
2.36603348815725e-10
2.18775143726443e-10
2.01808343911746e-10
1.85745500982622e-10
1.7061257272583e-10
1.56429392708966e-10
1.4319653754033e-10
1.30918593883557e-10
1.19571962932872e-10
1.09156545061376e-10
9.96213998475052e-11
9.09781852793195e-11
8.31363638943164e-11
7.61478971517251e-11
6.98521291041279e-11
6.43943812196098e-11
5.94775986841097e-11
5.54412315293391e-11
5.17197281363484e-11
4.90281162703318e-11
4.63025501884932e-11
4.48663270531523e-11
4.285499931548e-11
4.06500814443789e-11
3.9570527515028e-11
3.92538296382909e-11
3.93914463508753e-11
3.73946169030523e-11
3.42579537082356e-11
2.91346625922552e-11
2.30354187680385e-11
1.64305689897782e-11
1.02313695464362e-11
5.40171571787562e-12
3.82561827023962e-12
8.74289638131779e-12
1.80298967525953e-11
3.22177130937965e-11
5.00112709676854e-11
6.98052490467005e-11
9.17878243315574e-11
1.15121689983191e-10
1.41951596091162e-10
1.72712024741105e-10
2.16276501304055e-10
2.87287755183414e-10
3.95558840160976e-10
5.61309341769067e-10
8.24363364277934e-10
1.23739608557636e-09
1.79387911082376e-09
2.03935043088786e-09
1.39776075509479e-09
7.1131695703365e-10
2.88029672699439e-10
1.46880959785762e-10
2.32081820713726e-10
2.1059293941822e-10
1.60163595297272e-10
6.6009097647595e-11
1.85492792010479e-11
9.32226997542726e-12
6.39834029161901e-12
4.06362102469677e-12
2.73175714981649e-12
1.98157420353145e-12
1.59453346006742e-12
1.3768645601983e-12
1.30115098385276e-12
1.28464455445944e-12
1.29261329980253e-12
1.31896401205821e-12
1.36442663994688e-12
1.4169973562118e-12
1.46980389451782e-12
1.50580166385246e-12
1.54797242166288e-12
1.5985819366815e-12
1.66104187706088e-12
1.73900848337806e-12
1.84780462289927e-12
2.00758087005942e-12
2.23170875844542e-12
2.49535036036378e-12
2.85563467754335e-12
3.27393969301464e-12
3.94638444303253e-12
4.81948756661101e-12
6.87906776129446e-12
1.11009085723501e-11
1.68343487765596e-11
2.5181872225593e-11
3.63254761237488e-11
5.12239934256705e-11
7.00599093461075e-11
9.33900099792053e-11
1.21213496649754e-10
1.53618671416139e-10
1.90336703499824e-10
2.31090355753138e-10
2.75418785124556e-10
3.22857160834505e-10
3.72877331674443e-10
4.24971292595824e-10
4.78629796431406e-10
5.33374819706957e-10
5.88748570558755e-10
6.44322926541761e-10
6.99692501169643e-10
7.54476228944742e-10
8.08313707234671e-10
8.60865562484733e-10
9.11812543793214e-10
9.60856521886597e-10
1.00772123134805e-09
1.05215387002012e-09
1.09392684936991e-09
1.13284049726404e-09
1.1687252139429e-09
1.20144832808319e-09
1.23088342629729e-09
1.2569499745368e-09
1.27960079103636e-09
1.29881947660597e-09
1.3146191052855e-09
1.32704042323609e-09
1.33614962163557e-09
1.34203575467742e-09
1.34480788514621e-09
1.34459205541815e-09
1.34152815360603e-09
1.33576677172879e-09
1.32746611111194e-09
1.31678902112044e-09
1.30390017023421e-09
1.28896351056019e-09
1.27213980669051e-09
1.25358471151445e-09
1.23344663776225e-09
1.21186562580799e-09
1.18897124831886e-09
1.16488273356855e-09
1.1397061392707e-09
1.11353678282636e-09
1.0864538818363e-09
1.05852787739466e-09
1.02980854358366e-09
1.00034312718922e-09
9.70149162223046e-10
9.392566958418e-10
9.07646483633983e-10
8.75345193519442e-10
8.42287474025355e-10
8.08526366807645e-10
7.73930164258329e-10
7.38638748341051e-10
7.02412939186014e-10
6.65595051647044e-10
6.27774103093461e-10
5.89663591403449e-10
5.50508080895731e-10
5.10872819220214e-10
4.68536975974463e-10
4.25275785839474e-10
4.13712281351972e-10
4.26376186778708e-10
4.50894018518348e-10
4.77291594804237e-10
5.02412526497869e-10
5.22700560951282e-10
5.37173704813144e-10
5.48919853830057e-10
5.60541425461306e-10
5.70902069951092e-10
5.798509882585e-10
5.8934054893101e-10
5.97592061792174e-10
6.01661150995424e-10
5.95817669638582e-10
5.81101127160738e-10
5.63152058689389e-10
5.45198977679441e-10
5.32058870375679e-10
5.26604924754664e-10
5.44829185870173e-10
6.05292160768012e-10
7.16556405021804e-10
8.98727273941574e-10
1.19380260041771e-09
1.65519277814757e-09
2.25026122791152e-09
2.46503882697081e-09
1.76519333201122e-09
9.82414105653609e-10
4.7394646832086e-10
2.8183474976936e-10
2.92545277418293e-09
2.58957369320028e-09
1.95123352565187e-09
1.08152800834192e-09
4.10282788217614e-10
1.06070810524612e-10
2.57890398672442e-11
1.00720959291849e-11
7.05961507945089e-12
6.03713631844828e-12
5.43460573485174e-12
5.06145251950778e-12
4.99402857031902e-12
5.16052576987605e-12
5.51125374230578e-12
6.07960980723166e-12
6.91063226148381e-12
8.00781205790679e-12
9.34475666128815e-12
1.09103902155258e-11
1.28102764868053e-11
1.51301404380953e-11
1.79288936993305e-11
2.12891203842884e-11
2.5369893341494e-11
3.03897642832041e-11
3.64108024380105e-11
4.33869390019897e-11
5.15602547249877e-11
6.12701883257461e-11
7.37209398929642e-11
9.11862820661578e-11
1.21715915262678e-10
1.75886961384825e-10
2.48760877209171e-10
3.4434345139245e-10
4.6833271724238e-10
6.25717807422935e-10
8.20749051839307e-10
1.05695488601016e-09
1.33677619135774e-09
1.66159938855429e-09
2.03172916190398e-09
2.44656543173335e-09
2.90475945589289e-09
3.40442015627872e-09
3.94327364231441e-09
4.51879837978385e-09
5.1283086210109e-09
5.76900343844097e-09
6.43798260150165e-09
7.13224401333056e-09
7.84866985896658e-09
8.58401084199552e-09
9.33487335770885e-09
1.00977135164984e-08
1.08688389896202e-08
1.16444186134074e-08
1.24204990667825e-08
1.31930295028975e-08
1.3957896771848e-08
1.47109811578443e-08
1.54482086351094e-08
1.61664077638535e-08
1.68608591998702e-08
1.75276017489117e-08
1.81630967446313e-08
1.87640624521841e-08
1.93275085689326e-08
1.98507645391513e-08
2.03315011905676e-08
2.07677453270821e-08
2.11578871470819e-08
2.15006806981002e-08
2.17952376425544e-08
2.20410148207955e-08
2.22377963170096e-08
2.23856706202565e-08
2.24850037121386e-08
2.25364090393213e-08
2.25407145363565e-08
2.24989285260412e-08
2.2412204068093e-08
2.22818032878774e-08
2.21090611391524e-08
2.18953511625725e-08
2.16420506993723e-08
2.13505101984665e-08
2.10220206804857e-08
2.06577896244994e-08
2.02589109086906e-08
1.98263525116822e-08
1.93609270266218e-08
1.88633068769642e-08
1.8333978577831e-08
1.777333143288e-08
1.71815368844766e-08
1.65588507155362e-08
1.59052238931971e-08
1.52211709538033e-08
1.45066929076629e-08
1.37633208992788e-08
1.29920446792942e-08
1.21959023016982e-08
1.13772630643158e-08
1.05250271338538e-08
9.62590876323898e-09
8.71703744709065e-09
8.48953317713493e-09
8.78274906456166e-09
9.33558195619324e-09
9.97093652734221e-09
1.05990881013694e-08
1.11547295902208e-08
1.15978937400152e-08
1.19872632665056e-08
1.23605097734255e-08
1.26747883867539e-08
1.28934009766255e-08
1.3004350716352e-08
1.30060033089154e-08
1.28235655071041e-08
1.23594860149495e-08
1.1668419704243e-08
1.08706741331725e-08
1.00510647033085e-08
9.27748323732295e-09
8.60548032207064e-09
8.22537973606993e-09
8.28187350592231e-09
8.78821086961714e-09
9.8229888567384e-09
1.15975633501098e-08
1.43530732679285e-08
1.75394734238279e-08
1.79795999901041e-08
1.40431098442519e-08
9.00526946489363e-09
5.33117218487211e-09
3.60965884607228e-09
2.32801055294793e-08
2.05618505968791e-08
1.54837811285704e-08
8.76929616815514e-09
3.41242802834247e-09
8.72705248813671e-10
1.87377403002339e-10
6.06260478643486e-11
4.21494084823967e-11
3.83452498899489e-11
3.58762488229439e-11
3.41723221620815e-11
3.40690417606953e-11
3.55379215239301e-11
3.84086777491039e-11
4.30025276675266e-11
4.97018162706926e-11
5.86258179305081e-11
6.96102875346759e-11
8.26775162559496e-11
9.85589197663105e-11
1.17966375873201e-10
1.41386723429633e-10
1.69494426151769e-10
2.03520545621148e-10
2.45164051564566e-10
2.94898581028527e-10
3.52527149241147e-10
4.19743792870355e-10
4.99726712698751e-10
6.01569337839018e-10
7.4515668879982e-10
9.91663571767699e-10
1.42338770140735e-09
2.00439440427502e-09
2.76119107484639e-09
3.74056821963794e-09
4.97836339941137e-09
6.50935067294584e-09
8.35967187548109e-09
1.05499746398134e-08
1.30913702464004e-08
1.59881969081005e-08
1.92371858688868e-08
2.28299618319306e-08
2.67535872673706e-08
3.09923134502065e-08
3.55281652577254e-08
4.03417919923515e-08
4.54126641384508e-08
5.07192813485899e-08
5.62390862447559e-08
6.19483926099878e-08
6.78222396613355e-08
7.38343064058918e-08
7.99568567563e-08
8.61607595301587e-08
9.24155613359381e-08
9.8689621121789e-08
1.04950306228427e-07
1.11164274646685e-07
1.17297931557468e-07
1.23318040850714e-07
1.2920064281053e-07
1.34903571033875e-07
1.40394495104701e-07
1.45643647351551e-07
1.50623219568163e-07
1.55307668411433e-07
1.59673969863626e-07
1.63701820103932e-07
1.6737377910604e-07
1.70675355186504e-07
1.73595031557639e-07
1.76124236654638e-07
1.78257261644578e-07
1.79991130689295e-07
1.81325428375826e-07
1.8226209131959e-07
1.8280517112463e-07
1.82960571371654e-07
1.82735771366224e-07
1.82139537465825e-07
1.81181627901002e-07
1.79872498057164e-07
1.78223009335273e-07
1.76244150327196e-07
1.73946761911558e-07
1.7134129154042e-07
1.68437545896659e-07
1.6524450270592e-07
1.61770102678263e-07
1.58021150429749e-07
1.54003207552536e-07
1.49720542113519e-07
1.45176361084748e-07
1.40372523991823e-07
1.35310983968145e-07
1.29992073861721e-07
1.24419479421267e-07
1.18594475725246e-07
1.12528220865707e-07
1.0623123030995e-07
9.97252852262858e-08
9.30356165708606e-08
8.60656938832948e-08
7.87384235395472e-08
7.13947821615322e-08
6.96225068110618e-08
7.20879551571651e-08
7.67207771364884e-08
8.20665690863173e-08
8.73668913689619e-08
9.20790046212126e-08
9.58688338725809e-08
9.92027194276807e-08
1.02352237772562e-07
1.04962898859888e-07
1.06734024479331e-07
1.07557773427133e-07
1.07423988853566e-07
1.05720373338695e-07
1.01704815829696e-07
9.58619218565769e-08
8.91646587151802e-08
8.23062999406912e-08
7.58305028135124e-08
7.02092959903204e-08
6.69414083394762e-08
6.70870614667493e-08
7.07055934029336e-08
7.83380421042996e-08
9.14570065465486e-08
1.11566270409006e-07
1.33855069618024e-07
1.35135317057381e-07
1.06336553629454e-07
6.93278044481874e-08
4.19267291017258e-08
2.8731984818409e-08
1.12296947958776e-07
9.91409013779099e-08
7.4640296788661e-08
4.25313809808628e-08
1.6792078440746e-08
4.38906632415755e-09
9.50535635331514e-10
2.95560448515056e-10
1.99732145997821e-10
1.82404338343284e-10
1.71687411150897e-10
1.64013215261796e-10
1.63466572681157e-10
1.70336570672843e-10
1.83972594620598e-10
2.05924659191492e-10
2.38075097304009e-10
2.81094670943187e-10
3.34280723654579e-10
3.97803732725119e-10
4.75075812009171e-10
5.69558957716798e-10
6.83656197409798e-10
8.20623480153109e-10
9.8630347371011e-10
1.1887706651418e-09
1.43047853794806e-09
1.71068092485809e-09
2.03752661352406e-09
2.42674692963066e-09
2.92277543812906e-09
3.62344756278688e-09
4.81995651490064e-09
6.90470459865967e-09
9.71286034941221e-09
1.33685156216294e-08
1.80966985741801e-08
2.40673958651528e-08
3.1448452727291e-08
4.03642704594837e-08
5.09147203628399e-08
6.31530047325661e-08
7.71008958405922e-08
9.27433085757171e-08
1.10041176920196e-07
1.28933372716781e-07
1.49345465415743e-07
1.71192218922025e-07
1.94381816875791e-07
2.18816679021616e-07
2.44394513484942e-07
2.71007847991675e-07
2.98543698078827e-07
3.26882835587605e-07
3.55899369557511e-07
3.85460457230053e-07
4.15426384275209e-07
4.45650893678634e-07
4.75981814965931e-07
5.06261984726653e-07
5.36330552682889e-07
5.66025462918809e-07
5.95191414061817e-07
6.23703602462045e-07
6.5135869605306e-07
6.78001490963337e-07
7.03487074837564e-07
7.27679818412176e-07
7.50454885458514e-07
7.71699494565208e-07
7.91313924242713e-07
8.09212242252623e-07
8.25322749250495e-07
8.39588140733166e-07
8.51965394809747e-07
8.62425401351824e-07
8.70952358972919e-07
8.77542960544978e-07
8.82205401045345e-07
8.84958242536614e-07
8.85829148850878e-07
8.84853552381665e-07
8.82073257205236e-07
8.77535007348892e-07
8.71289054205718e-07
8.63387740009158e-07
8.53884136935482e-07
8.42830709012122e-07
8.30278103659807e-07
8.16273956281307e-07
8.00861940248926e-07
7.84080795923041e-07
7.65963750259019e-07
7.46538144396176e-07
7.25824903359956e-07
7.03840116450528e-07
6.80592852187872e-07
6.56093415297923e-07
6.30342950386104e-07
6.03360755190495e-07
5.7515141700202e-07
5.45771402962903e-07
5.1526841234181e-07
4.83751860460489e-07
4.51346106150009e-07
4.17591390750645e-07
3.82209866341562e-07
3.47001170481602e-07
3.38800852760332e-07
3.51037607928044e-07
3.73995149991543e-07
4.00551849838093e-07
4.26937322494701e-07
4.50463686991058e-07
4.69494350582731e-07
4.86230191848212e-07
5.01819811027238e-07
5.14552862947448e-07
5.23016396863903e-07
5.26712423691578e-07
5.25555534783444e-07
5.16600747419321e-07
4.96510546854445e-07
4.67777891039487e-07
4.35053889124911e-07
4.01675994520859e-07
3.70271155396238e-07
3.43227035199438e-07
3.27721850031954e-07
3.28605326704352e-07
3.46163323316164e-07
3.82994511850677e-07
4.45858459253252e-07
5.40802634175258e-07
6.42547669198097e-07
6.41942758157789e-07
5.03598103093844e-07
3.29635823414808e-07
2.0082823773865e-07
1.38381219430368e-07
3.95216207733751e-07
3.48996413846893e-07
2.62730547293725e-07
1.5041633758097e-07
6.02197390489303e-08
1.61413586968284e-08
3.57488792625428e-09
1.09116483571e-09
7.14742532736884e-10
6.49619404371488e-10
6.1250027319501e-10
5.85454825514136e-10
5.82579922362384e-10
6.05677077201412e-10
6.52750069012512e-10
7.29175166579676e-10
8.41698601052076e-10
9.92910407291809e-10
1.18061597514976e-09
1.40548729719906e-09
1.6792777587716e-09
2.01426185645366e-09
2.41909933811226e-09
2.90526142014742e-09
3.49302901810143e-09
4.21043912720493e-09
5.06683560639244e-09
6.06005560588652e-09
7.21908084288229e-09
8.59998613161969e-09
1.03621862471883e-08
1.28543792989735e-08
1.70927717875916e-08
2.44466097800021e-08
3.43599164502355e-08
4.72628841290531e-08
6.39429405946804e-08
8.4992696183341e-08
1.11001442647755e-07
1.42402955423934e-07
1.79547559159055e-07
2.2262060647051e-07
2.71698979882962e-07
3.26730021268021e-07
3.87578072673052e-07
4.54030195643031e-07
5.25827456072056e-07
6.02673212896119e-07
6.84248144953295e-07
7.70212891246412e-07
8.6021178327068e-07
9.5387105780793e-07
1.05079764138857e-06
1.15057645093545e-06
1.25276881977196e-06
1.35691134965542e-06
1.46251607582112e-06
1.56907150063163e-06
1.67604468639716e-06
1.78288434881094e-06
1.88902519315931e-06
1.99389814552352e-06
2.09698164283495e-06
2.19777803783103e-06
2.2955938998988e-06
2.38988363912402e-06
2.48013289191683e-06
2.56585926185551e-06
2.64661776125749e-06
2.72200538772834e-06
2.79166480651782e-06
2.85528706564913e-06
2.9126133031776e-06
2.96343545595198e-06
3.00759599179577e-06
3.04498671624453e-06
3.07554674483607e-06
3.09925971141894e-06
3.11615033137082e-06
3.1262804429657e-06
3.12974456879856e-06
3.12666522330097e-06
3.11718797849781e-06
3.1014763967678e-06
3.07970694148428e-06
3.05206395039298e-06
3.01873477114516e-06
2.97990502355538e-06
2.93575422189631e-06
2.88645161215255e-06
2.83215257196796e-06
2.77299546753254e-06
2.70909896500377e-06
2.64056167490889e-06
2.56745851632144e-06
2.48984910538279e-06
2.40776525925587e-06
2.32124776167112e-06
2.23029735831338e-06
2.13499011928632e-06
2.03533247969353e-06
1.93153807420644e-06
1.82375514538469e-06
1.71239503129149e-06
1.59789548462496e-06
1.47868225374217e-06
1.35402286544701e-06
1.23060881353493e-06
1.20281166394069e-06
1.24699110436809e-06
1.32986787793072e-06
1.42601062825931e-06
1.52175706268575e-06
1.60739273093708e-06
1.67705071763753e-06
1.73830080681384e-06
1.7945849744091e-06
1.83988490259592e-06
1.86937621055104e-06
1.88140074349164e-06
1.87551127786625e-06
1.84140813505467e-06
1.76825419903488e-06
1.66537024945857e-06
1.54894549667262e-06
1.43069638937374e-06
1.31990376200059e-06
1.22536488850847e-06
1.17218684290368e-06
1.17650283476432e-06
1.23939349732693e-06
1.37006785793873e-06
1.59117903178776e-06
1.91966122941312e-06
2.25891490419678e-06
2.23179131123317e-06
1.74116641054049e-06
1.14223473539415e-06
7.00613624958697e-07
4.85704834727964e-07
1.12602434323011e-06
9.95440250314949e-07
7.49667437102557e-07
4.31214592816203e-07
1.75139354337999e-07
4.82009941701413e-08
1.09461432556339e-08
3.29791416870177e-09
2.09162795979138e-09
1.88749975653665e-09
1.78118992722077e-09
1.70291114978105e-09
1.69152317639521e-09
1.75413218808906e-09
1.88577746847556e-09
2.10157106847217e-09
2.42114020934713e-09
2.85250857451046e-09
3.39021855060176e-09
4.0363537995371e-09
4.82383123779302e-09
5.78799101837672e-09
6.95417872953064e-09
8.35523367291846e-09
1.00483024962837e-08
1.21123290853744e-08
1.45760798590596e-08
1.74344631782381e-08
2.07710601675098e-08
2.4747368797444e-08
2.98270415253576e-08
3.70158963758141e-08
4.91949957309062e-08
7.02432894542236e-08
9.86329524401151e-08
1.35573124175335e-07
1.83295092375024e-07
2.43472791043643e-07
3.1778029964212e-07
4.07442766006694e-07
5.13454351375199e-07
6.36338378836886e-07
7.76314688206198e-07
9.33235535261857e-07
1.10672071908699e-06
1.29617171260083e-06
1.50086159577293e-06
1.71995756511081e-06
1.95256388903734e-06
2.19772881308421e-06
2.45445503805707e-06
2.72169414173428e-06
2.9983427633878e-06
3.28323440461558e-06
3.57513447158044e-06
3.87273648327879e-06
4.17466206714818e-06
4.47946344601254e-06
4.78562894326959e-06
5.0915913625071e-06
5.39574009802358e-06
5.69644686092806e-06
5.99232288958234e-06
6.28172056237126e-06
6.56275661968406e-06
6.83386680019951e-06
7.09356522916871e-06
7.34045477942189e-06
7.57324307767982e-06
7.79075610641583e-06
7.99194927804967e-06
8.17591575154984e-06
8.34189185472322e-06
8.4892596222861e-06
8.61754649654685e-06
8.72642232471025e-06
8.81569390592404e-06
8.88529728134326e-06
8.93528810897587e-06
8.96583047585441e-06
8.97718426427842e-06
8.96969173447858e-06
8.94376336026778e-06
8.89986323640687e-06
8.83849437438914e-06
8.76018416762248e-06
8.6654702537169e-06
8.55488681869233e-06
8.42895172413493e-06
8.28815463605461e-06
8.13294601927861e-06
7.96372882552616e-06
7.78084894789341e-06
7.58459694559269e-06
7.37519226522624e-06
7.1528159507046e-06
6.91755960144866e-06
6.66955535600819e-06
6.40879494777e-06
6.13552332030714e-06
5.84972586363969e-06
5.55206312391114e-06
5.24288972300608e-06
4.92347005480898e-06
4.59505271725505e-06
4.25329984429984e-06
3.89656511534535e-06
3.5444075731654e-06
3.46746078090506e-06
3.59661416017988e-06
3.8392186967228e-06
4.12160751704546e-06
4.40359982878131e-06
4.65668125708173e-06
4.863714368566e-06
5.04578048837113e-06
5.21089622052943e-06
5.34183939438827e-06
5.42527290712068e-06
5.45670042655886e-06
5.43441850795702e-06
5.3292734952844e-06
5.11307524264602e-06
4.81405099184655e-06
4.47788168576901e-06
4.13796447934525e-06
3.82095210638782e-06
3.55310260329252e-06
3.40564005572708e-06
3.42173319403354e-06
3.60468096793902e-06
3.98089556553622e-06
4.61144518953517e-06
5.5314565804206e-06
6.44339336769633e-06
6.28963224322027e-06
4.8703297324338e-06
3.19732322893832e-06
1.97428647874684e-06
1.37837598750149e-06
2.75621976506847e-06
2.44212409969682e-06
1.84154759559456e-06
1.0646522858462e-06
4.3898136232099e-07
1.24201468191124e-07
2.89582030776923e-08
8.63979346885571e-09
5.30126478071533e-09
4.74268396486993e-09
4.47796177014887e-09
4.28196042044663e-09
4.24558071185153e-09
4.3911182230925e-09
4.70824770249337e-09
5.23365212352525e-09
6.01663618636777e-09
7.07855047090686e-09
8.40803493419426e-09
1.00106778337356e-08
1.19660454104864e-08
1.4361983412575e-08
1.72625387323581e-08
2.07489204562255e-08
2.49600137639293e-08
3.00873028616478e-08
3.62066886629729e-08
4.33078678863067e-08
5.15976911053066e-08
6.14760639839745e-08
7.41029747457282e-08
9.19765050424504e-08
1.22146754455645e-07
1.74086913251665e-07
2.44162796372927e-07
3.35295490464321e-07
4.52924338458816e-07
6.01116712775899e-07
7.83962287604267e-07
1.00443998451233e-06
1.26497889679786e-06
1.56685616779765e-06
1.91061927585951e-06
2.29592147299137e-06
2.72185674863431e-06
3.1869903259727e-06
3.6895795421287e-06
4.22762667084544e-06
4.79898360345693e-06
5.40136718589199e-06
6.03238384517057e-06
6.6895144449095e-06
7.37010354901979e-06
8.07133775441971e-06
8.7902319997398e-06
9.52361875706407e-06
1.0268146672216e-05
1.10202854648559e-05
1.17763382039861e-05
1.25324610971281e-05
1.32847031985384e-05
1.40291188938807e-05
1.47622521770723e-05
1.54797301128438e-05
1.6177079476774e-05
1.68504122817442e-05
1.74960130236265e-05
1.81103781178732e-05
1.86902567341852e-05
1.92326859286835e-05
1.973501958084e-05
2.01949505117842e-05
2.06105253929796e-05
2.09801524276289e-05
2.13026018817594e-05
2.15769997674577e-05
2.18028152886106e-05
2.19798425077457e-05
2.21081770902997e-05
2.21881889934981e-05
2.22204913928473e-05
2.22059075103133e-05
2.21454354700938e-05
2.20402119399405e-05
2.18914754216485e-05
2.17005298510251e-05
2.14687091399594e-05
2.11973428046985e-05
2.08877234131308e-05
2.05410770193055e-05
2.01585345150367e-05
1.97411122133846e-05
1.9289684172208e-05
1.88049925085347e-05
1.82875954819739e-05
1.77379696887929e-05
1.71563448414308e-05
1.65430893161031e-05
1.58981548922295e-05
1.52222195118039e-05
1.45151545989782e-05
1.37787227279623e-05
1.30136013455815e-05
1.22231467914549e-05
1.14104297409207e-05
1.05652199227051e-05
9.6839077053429e-06
8.81433163340108e-06
8.62932560520611e-06
8.9543907621944e-06
9.5665459948504e-06
1.02818542973704e-05
1.0998376956981e-05
1.16438634371037e-05
1.2175001591316e-05
1.26422109044504e-05
1.30605287002819e-05
1.33874049987968e-05
1.35910935367009e-05
1.36610072868955e-05
1.3591906773483e-05
1.33128429642501e-05
1.27615525464242e-05
1.20116005030793e-05
1.11740910665414e-05
1.03311768045339e-05
9.54899725303117e-06
8.89502985393565e-06
8.5434448143168e-06
8.59286394730575e-06
9.051781343873e-06
9.98527311054182e-06
1.15340170668025e-05
1.37508382235992e-05
1.58526316058561e-05
1.52811206949041e-05
1.17225691294576e-05
7.68464759588414e-06
4.77245088815349e-06
3.3566743077816e-06
6.01002615211358e-06
5.34421173768887e-06
4.04113335336112e-06
2.3498341502529e-06
9.84391571955236e-07
2.86745743534405e-07
6.87239488185675e-08
2.03641024681858e-08
1.20807301119685e-08
1.06995702960301e-08
1.01053176823359e-08
9.66519936673414e-09
9.56568771275671e-09
9.86676074290923e-09
1.05501765306572e-08
1.16958727419472e-08
1.34149581795135e-08
1.57582166476158e-08
1.87054161263653e-08
2.22700980457474e-08
2.66246359402138e-08
3.196481986812e-08
3.84357654020011e-08
4.62176204509272e-08
5.56126436509561e-08
6.70361491673052e-08
8.06660599659198e-08
9.64833326778675e-08
1.14943208456366e-07
1.3692910099876e-07
1.65031276362533e-07
2.0480100042107e-07
2.71701936995628e-07
3.86427976960886e-07
5.41209913160848e-07
7.42344407115163e-07
1.00167284678374e-06
1.32802690247098e-06
1.73033205480187e-06
2.21507329142282e-06
2.78756723182973e-06
3.45062479355835e-06
4.20549068350418e-06
5.05147313103431e-06
5.98667793823331e-06
7.00806886185807e-06
8.11194780441164e-06
9.29406611794254e-06
1.05498499973207e-05
1.18744305324418e-05
1.32626938814527e-05
1.47092445757362e-05
1.62083781844133e-05
1.77540302215842e-05
1.93397425371649e-05
2.09586364843904e-05
2.26034073078302e-05
2.42663329216402e-05
2.59392991888198e-05
2.76138440763686e-05
2.92812820874535e-05
3.09331521543739e-05
3.25612436024443e-05
3.41556646075239e-05
3.57067575219104e-05
3.72058344251557e-05
3.86445555183058e-05
4.00150368354008e-05
4.13099435949437e-05
4.25225714143103e-05
4.36469137633921e-05
4.46777141838955e-05
4.56105023180564e-05
4.64416136431528e-05
4.71681930271738e-05
4.77881827406375e-05
4.83002962681041e-05
4.87039789114831e-05
4.89993571304234e-05
4.91871785282729e-05
4.9268743164733e-05
4.92458299099934e-05
4.91206182529427e-05
4.88956070681737e-05
4.85735325832026e-05
4.8157286660044e-05
4.76498373610714e-05
4.70541515056603e-05
4.63731214008336e-05
4.56094983783709e-05
4.47658269501957e-05
4.3844403268545e-05
4.28472059786323e-05
4.17759309769407e-05
4.06318487131959e-05
3.94160773476034e-05
3.81291277881994e-05
3.67719058004173e-05
3.53442283669246e-05
3.38477558579385e-05
3.22819653378511e-05
3.0651049881039e-05
2.89560028721039e-05
2.72047768675347e-05
2.54040914343327e-05
2.35325376198823e-05
2.15818014917204e-05
1.96534701668852e-05
1.92524215413386e-05
1.99839668672975e-05
2.13661516122367e-05
2.29881365330433e-05
2.46183894809694e-05
2.60929329263426e-05
2.73136243292061e-05
2.83876994534081e-05
2.93374365430081e-05
3.00688969250086e-05
3.05144438936239e-05
3.06516032133179e-05
3.04665460176015e-05
2.98052583740871e-05
2.85468565212439e-05
2.68624182892853e-05
2.49938206518364e-05
2.31220761659046e-05
2.13944583976982e-05
1.99659847639603e-05
1.92179688323056e-05
1.93501830355373e-05
2.03816394002379e-05
2.24554119697324e-05
2.5859389165076e-05
3.06360784981034e-05
3.49597112226169e-05
3.32844883258608e-05
2.52577310096719e-05
1.64896847005783e-05
1.02785722505102e-05
7.27722888730557e-06
1.19532326496543e-05
1.06789906664238e-05
8.1138517117294e-06
4.75074255583793e-06
2.02371312142936e-06
6.0792582410282e-07
1.49975310845049e-07
4.4273294066594e-08
2.53828013648367e-08
2.22226594832747e-08
2.0989425114906e-08
2.00812254570351e-08
1.98388818638075e-08
2.04063525998866e-08
2.17568559093238e-08
2.40508293104842e-08
2.75186278907988e-08
3.22710658780999e-08
3.82774813847347e-08
4.55682803479036e-08
5.44866328022709e-08
6.54336424816247e-08
7.8711514025672e-08
9.46876598206351e-08
1.13965714358059e-07
1.37370880716677e-07
1.65282317194211e-07
1.9766515642751e-07
2.35430412895738e-07
2.80360549057902e-07
3.37744904528647e-07
4.18908050174857e-07
5.55018444722922e-07
7.87487292759852e-07
1.10101996026107e-06
1.50803959505289e-06
2.03214460894121e-06
2.69092132296411e-06
3.50222680164394e-06
4.47904689318613e-06
5.63209215118764e-06
6.96710710612573e-06
8.48675257603677e-06
1.01898568450137e-05
1.20728698624592e-05
1.4129976986058e-05
1.63540450226132e-05
1.87368387122948e-05
2.12694604180117e-05
2.39424041926887e-05
2.67456471936635e-05
2.96685699275879e-05
3.2699893969723e-05
3.58275738099757e-05
3.90387239023846e-05
4.2319561181593e-05
4.56553916297166e-05
4.90306280209545e-05
5.24288443202739e-05
5.58328764037205e-05
5.92250848105222e-05
6.25890110511205e-05
6.59061091946711e-05
6.91564949832921e-05
7.23208445666989e-05
7.53813359246869e-05
7.83208204348148e-05
8.11230664891291e-05
8.37729532973451e-05
8.62566404883205e-05
8.85617091797234e-05
9.06772715135773e-05
9.25940466988415e-05
9.43044033806084e-05
9.58023686075753e-05
9.70836047408324e-05
9.81453571134745e-05
9.89863744747184e-05
9.96068063123039e-05
0.000100008080901317
0.000100192765532334
0.000100164416438939
9.99274195678054e-05
9.9486824699657e-05
9.88481782625559e-05
9.80173559956321e-05
9.70004010732493e-05
9.58033649613222e-05
9.44321577471463e-05
9.28924115197973e-05
9.11893434214832e-05
8.93276739378811e-05
8.73114717697365e-05
8.5144248370411e-05
8.28286105250452e-05
8.03669138842368e-05
7.77601472205843e-05
7.50102870904009e-05
7.21167323475519e-05
6.90831299993297e-05
6.5907821401234e-05
6.25998632492172e-05
5.91600664898948e-05
5.56055814217498e-05
5.19496500958217e-05
4.81516855013445e-05
4.41919824691571e-05
4.02621004721768e-05
3.94595518325444e-05
4.09676356572268e-05
4.38272431218351e-05
4.71979592614135e-05
5.05978359546267e-05
5.36858539030117e-05
5.62583722863293e-05
5.85224416209944e-05
6.05006669917836e-05
6.20034352441804e-05
6.28987324185455e-05
6.31424208264334e-05
6.27019525392832e-05
6.12720354697796e-05
5.86418265543531e-05
5.51742413354852e-05
5.13520916694413e-05
4.75412289954982e-05
4.40431719658926e-05
4.11842182548601e-05
3.97305343707964e-05
4.00503971950685e-05
4.21815439853183e-05
4.64115759471173e-05
5.32773873307352e-05
6.27203579273409e-05