/*--------------------------------*- C++ -*----------------------------------*\
| =========                 |                                                 |
| \\      /  F ield         | OpenFOAM: The Open Source CFD Toolbox           |
|  \\    /   O peration     | Version:  4.1                                   |
|   \\  /    A nd           | Web:      www.OpenFOAM.org                      |
|    \\/     M anipulation  |                                                 |
\*---------------------------------------------------------------------------*/
FoamFile
{
    version     2.0;
    format      ascii;
    class       volScalarField;
    location    "30000";
    object      omega;
}
// * * * * * * * * * * * * * * * * * * * * * * * * * * * * * * * * * * * * * //

dimensions      [0 0 -1 0 0 0 0];

internalField   nonuniform List<scalar> 
21000
(
39721.9330982789
39702.8666487741
39785.3326809285
40429.0269821656
42429.4567975967
45528.436901407
47577.4552770534
47935.8961652894
46775.1767967887
44526.3693696224
41539.8078675539
38105.8558358018
34629.3609027162
31626.6699407852
29076.4729365697
26894.3417982303
25014.3185911938
23384.3091027563
21958.9573559546
20617.061130601
19269.6009663806
17933.5796098865
16627.2579356517
15366.9507034839
14169.3590454643
13074.6996519205
12145.0832178393
11380.2141330683
10773.5380785334
10322.7212212242
10029.0307677834
9896.78144344462
9917.16911036269
9930.48317149753
9930.48317409317
9930.48317838377
9930.48318428256
9930.48319257247
9930.48320324367
9930.48321672007
9930.48323288344
9930.48325176304
9930.48327305481
9930.48329649772
9930.48332166253
9930.48334814742
9930.48337549654
9930.48340329377
9930.48343112288
9930.48345861185
9930.48348541039
9930.48351120821
9930.48353572334
9930.48355870533
9930.48357993321
9930.48359921832
9930.48361639427
9930.48363133014
9930.48364392115
9930.48365409321
9930.48366180136
9930.48366703048
9930.48366979646
9930.48367014244
9930.48366813914
9930.48366388353
9930.48365749407
9930.4836491123
9930.48363889325
9930.48362701148
9930.48361364591
9930.48359898581
9930.48358322738
9930.48356656147
9930.48354918158
9930.48353127129
9930.48351301263
9930.48349457166
9930.48347610648
9930.48345776278
9930.48343967161
9930.48342195006
9930.4834047015
9930.48338801123
9930.48337195773
9930.4833565979
9930.48334198116
9930.48332814212
9930.48331510608
9930.48330288668
9930.48329148698
9930.48328090894
9930.48327113371
9930.48326216121
9930.48325394617
9930.4832464999
9930.48323974467
9930.48323372352
9930.48322829964
9930.4832235978
9930.48321936237
9930.4832158845
9930.48321267893
9930.48321035918
9930.48320801197
9930.48320677468
9930.48320504141
9917.16914384766
9896.78147665575
10029.030801259
10322.7212559294
10773.5381128666
11380.2141662239
12145.0832477755
13074.6996771766
14169.3590646079
15366.9507158515
16627.2579419405
17933.5796140888
19269.6009789695
20617.0611605851
21958.9574149099
23384.3092012419
25014.318741109
26894.342007334
29076.4732252023
31626.6703241116
34629.3614194755
38105.8565488273
41539.8088929673
44526.3708923266
46775.1790584169
47935.8995781962
47577.460359325
45528.4439611661
42429.4643034436
40429.0318106882
39785.3348293065
39702.86724242
39721.9331785454
6842.8718790395
6835.72753441515
6846.85559859646
6952.85514253238
7289.3660444205
7818.10844830571
8173.53417730284
8241.79573575256
8048.72393437925
7667.522776785
7158.41934274064
6570.77301480773
5972.95640085259
5454.64215340531
5014.19402465121
4637.32699298506
4312.63872309831
4031.14486556189
3785.3581632086
3554.727517949
3323.48064560999
3094.08817490723
2869.67693121447
2653.05463058776
2446.99178667164
2258.18385841046
2097.48035865726
1965.18233981827
1860.22717924804
1782.24694775304
1731.49080168234
1708.53524382824
1710.5758844136
1711.18593869256
1710.94617298085
1710.98824022128
1711.03060474866
1711.0662136429
1711.09548117345
1711.11634187926
1711.12920981031
1711.13406055924
1711.13187935572
1711.12354843456
1711.11024317458
1711.09297696533
1711.07272420601
1711.0502581572
1711.02621778016
1711.0010733117
1710.97517750513
1710.94877520015
1710.92204051924
1710.89509374911
1710.86802458264
1710.84090437936
1710.81379827054
1710.7867711015
1710.75989225628
1710.73323776678
1710.70689179034
1710.68094427531
1710.65554614384
1710.640247339
1710.6300322172
1710.62007192486
1710.61040913864
1710.60108698473
1710.59214617734
1710.58362433791
1710.57555542375
1710.56796927967
1710.56089133147
1710.55434240486
1710.54833865216
1710.5428916202
1710.53800837899
1710.53369177318
1710.52994072837
1710.52675063913
1710.5241137099
1710.52201963502
1710.52045564411
1710.51940777585
1710.51886003893
1710.51879728308
1710.51920164907
1710.52005993093
1710.5213524965
1710.52307297741
1710.52519689964
1710.52773398208
1710.5306443344
1710.53397346225
1710.53763757346
1710.54176226603
1710.54615107129
1710.55111008273
1710.55616936624
1710.56204613207
1710.56762462563
1710.57457675528
1710.58025035681
1710.58861586233
1710.59306086285
1710.6036954185
1710.87788308729
1710.31908744954
1708.43767447907
1731.47136171131
1782.25048022475
1860.23400232859
1965.16892042831
2097.43667569275
2258.10105956626
2446.8554822097
2652.85267175053
2869.40543755625
3093.741329299
3323.07205909439
3554.26850458479
3784.87458345002
4030.65275180789
4312.12912155727
4636.78705878019
5013.60860218055
5453.97144067541
5972.14943126078
6569.71353233941
7157.12127768544
7665.99646271822
8046.95855663183
8239.80970788352
8171.54770836483
7816.03698017041
7289.82808073578
6957.7358485401
6852.68916650734
6841.65649098942
6844.36724346943
2283.03936851582
2279.80050483618
2281.48532947937
2315.18438956446
2426.00679396489
2602.53621674127
2722.85399110379
2747.38569962021
2684.8951935924
2559.3592318242
2390.82035949425
2195.61869113426
1996.26985274006
1822.89957681983
1675.5058247454
1549.39608129551
1440.75407940352
1346.57375968166
1264.42542375463
1187.53486800093
1110.52887229096
1034.10843898812
959.312445555523
887.080327808641
818.314991607855
755.195374521544
701.374346350901
657.048501396912
621.881821283325
595.747197493559
578.740565254553
571.005067425749
571.213879908408
570.965240387994
570.802303933992
570.807288715775
570.811714865599
570.816309095608
570.820229647336
570.823927032912
570.827137805116
570.830074250673
570.832685854063
570.835078468483
570.837252725485
570.839250699252
570.841068165573
570.842707912943
570.84415263415
570.845385527787
570.846382915206
570.847122612972
570.847582327978
570.847743116125
570.847589180074
570.847109233168
570.846296467669
570.845148976591
570.843669633813
570.841866122631
570.839751559322
570.837375002503
570.834962497159
570.819926340128
570.801592210674
570.783649019365
570.766182782364
570.74927486753
570.73300242464
570.717437142626
570.70264420635
570.688681472556
570.675598897195
570.663438183204
570.652232628457
570.642007208172
570.632778789177
570.624556533736
570.61734244636
570.611131981666
570.605914758598
570.601675498837
570.598394553925
570.596049355792
570.594614310691
570.594063519909
570.594368505087
570.595504545809
570.597442226704
570.600163964177
570.603638462125
570.607864841487
570.612802134186
570.618484458117
570.624836733331
570.63196735444
570.639705496227
570.648321446641
570.65740051168
570.667579634984
570.677845538719
570.689712305816
570.700658121873
570.714465563508
570.724203691389
570.740480005014
570.897686858954
571.163220195728
570.982221098906
578.763897221208
595.765774743233
621.877902090042
657.007106144986
701.27733298064
755.02719055741
818.051403031202
886.702626422498
958.814785964565
1033.49190094494
1109.8109210219
1186.73666234753
1263.59007938304
1345.72767345315
1439.88479341523
1548.48216642128
1674.51630989045
1821.77455096417
1994.91943859059
2193.86318278399
2388.68011945937
2556.85676256333
2682.01521359882
2744.16069958206
2719.5957048501
2601.3825838016
2428.44066022071
2316.80568799572
2282.41619985625
2280.38247460069
2283.27491216813
1058.74246490133
1056.651417025
1057.65115247996
1073.07259021523
1123.25197560951
1203.69871911829
1258.8730095775
1270.51881659224
1242.2472911305
1184.81133409648
1107.40091448763
1017.5032693129
925.384452932529
845.015966754748
776.644100710124
718.141510329914
667.738693233477
624.043386237496
585.957911793791
550.394150539302
514.828207137244
479.525481280643
444.962255325144
411.57345146394
379.768396717513
350.530313438062
325.554585538281
304.977568106943
288.652745085766
276.527383089973
268.650256001324
265.077440647575
265.045746066865
264.76923283238
264.684518466013
264.710142794806
264.733522191794
264.754837830466
264.772040409203
264.785610628268
264.795022482175
264.800827862888
264.803254632107
264.802899076452
264.800195577
264.795632541517
264.789571514271
264.782325186304
264.774110706031
264.765088717926
264.755361327893
264.744995647204
264.734031783383
264.722496756889
264.710411451435
264.697797846085
264.684682742363
264.671100621065
264.657094837765
264.642718663015
264.628039258586
264.61317099296
264.598116750732
264.572622679946
264.54637786785
264.520661220275
264.495595695256
264.471300937811
264.447890141566
264.425468338762
264.404130980976
264.383962833569
264.365037219812
264.347415570376
264.331147257282
264.316269735943
264.302808884698
264.290779585017
264.28018651432
264.271024983701
264.263282014149
264.256937503345
264.251965245177
264.248334464604
264.246010533667
264.244957278958
264.245136361255
264.246511818421
264.24904549782
264.252708152684
264.257463524516
264.263297838612
264.270173303936
264.278105848648
264.287039947106
264.297049145091
264.308015859599
264.32013106665
264.333103900607
264.34738575983
264.362233291123
264.378746668555
264.394946089305
264.413775814699
264.429057937776
264.450310891404
264.553083741703
264.877337480471
264.998639175232
268.649917839836
276.529777967431
288.627533842055
304.897357583509
325.39492551848
350.269373536124
379.373828459578
411.021970607062
444.247620090455
478.654388170916
513.822617945035
549.284689242274
584.80213280185
622.87559428441
666.541835946395
716.888591948328
775.292825672992
843.487736206714
923.555552023219
1015.14790728646
1104.54680844083
1181.49607428106
1238.45695871296
1266.29560249696
1254.5979677561
1201.50619985198
1125.71384013293
1076.61664157516
1061.25742366628
1059.8689585764
1059.81997103023
590.714847877878
589.007555924437
590.214739242827
599.07972682781
626.188576526385
669.571430806592
699.270723590337
705.650060163716
690.236935542129
658.685386349356
616.004985784678
566.30640740268
515.209325945124
470.477427205784
432.391287005483
399.799088583019
371.715775656131
347.367463348554
326.156474979609
306.395404271257
286.665338642828
267.078814146909
247.89729787657
229.362753909048
211.699131135929
195.439649388085
181.525055305119
170.058199178707
160.963122384953
154.217941268785
149.851744747049
147.898259966999
147.854540128217
147.636495949938
147.601593469156
147.646894528203
147.687886310021
147.724591278027
147.75370729127
147.775868665342
147.790309980898
147.797962764019
147.799335236824
147.795506937611
147.78732357894
147.775693869916
147.761317556311
147.744793481182
147.726554356027
147.706925739967
147.686128727072
147.664318232261
147.641599305376
147.618050514737
147.593736859269
147.568721978235
147.543074801601
147.516874282719
147.49021152436
147.463192394473
147.435946614175
147.408596276724
147.380384303689
147.346039936068
147.311815382815
147.278322256319
147.245720154211
147.214163668363
147.18379788867
147.154756403431
147.127159675156
147.10111381975
147.076709819696
147.054023114005
147.033113540396
147.014025638819
146.99678919995
146.981420090414
146.967921327268
146.956284193201
146.946489664481
146.938509837581
146.932309380566
146.927847213917
146.925077884862
146.923953640269
146.924425083004
146.926444414187
146.929963879191
146.934942670216
146.941338659949
146.9491261537
146.958268992046
146.968767331634
146.98058203152
146.993756978545
147.00822122208
147.024097089837
147.041204439862
147.059829561835
147.079476095449
147.100861650951
147.122524733481
147.146570161486
147.167674919847
147.194023259572
147.272466174072
147.569617534698
147.75509275144
149.815079075997
154.190092309385
160.901727077468
169.924502880723
181.288538902785
195.072501442993
211.162364431544
228.629984279325
246.963059673595
265.95452013894
285.377900934521
304.984372285313
324.691730132103
345.889663662348
370.204047932299
398.221817139814
430.696070413977
468.569004042395
512.93448624747
563.403017344713
612.504628851506
654.637858168341
685.62701923256
700.510684820023
693.979606498943
666.132364552044
628.098488762131
603.928945418002
596.178713128989
594.658789401372
592.647336714038
370.153370410202
368.49948041344
369.936437335114
375.935506081098
392.247656770411
417.977727318526
435.339018410519
439.018360050148
429.556644159032
410.152096663798
383.812833433516
353.055389643169
321.324417557673
293.442296129941
269.678478055887
249.339325757701
231.810884741113
216.611616361276
203.375480996438
191.071703163034
178.809571526885
166.635889887588
154.710948305715
143.18574656326
132.198385468494
122.073261930499
113.39253059328
106.238451612482
100.567642325031
96.373916262312
93.6770245154029
92.5050839884669
92.4945319708229
92.3388620227179
92.3387986054189
92.400568637769
92.4558759865037
92.5047025906529
92.5427834841399
92.5709127577966
92.5882200020034
92.5959907068283
92.5950234349546
92.5868193184048
92.5725859993194
92.5535836750617
92.5307948955162
92.5050535120236
92.47697111257
92.4470115400932
92.4154995165726
92.3826703102994
92.3486929147832
92.3137003644831
92.2778069686551
92.2411238641724
92.2037675012407
92.1658654472899
92.127559066384
92.089007677222
92.0503997944804
92.0118492098074
91.9721950568868
91.9294259814125
91.8873143169932
91.8462434054085
91.8064034912605
91.7679762765333
91.7311301952721
91.6960183519072
91.6627769077613
91.6315239458759
91.6023588322347
91.5753620035323
91.5505951507841
91.5281017916007
91.5079081112158
91.4900240953733
91.4744449164801
91.4611523597521
91.4501165818987
91.441297813641
91.4346481666689
91.4301135090265
91.4276353093917
91.4271526595236
91.4286037694709
91.4319284779324
91.4370686541061
91.4439724474968
91.452591111037
91.4628888927997
91.474829597708
91.4884018012735
91.5035783777758
91.5203825058109
91.5387790926094
91.5588409633274
91.5804739869699
91.6038396307501
91.6286357790444
91.6552765984002
91.6827197100791
91.7123509181747
91.7396161832168
91.7714476486928
91.8397239006218
92.1031537509307
92.2926242417216
93.5922228109748
96.301380454787
100.453831939989
106.034945621967
113.063101789464
121.584445664538
131.505905032094
142.261287741267
153.550762852381
165.255316636569
177.240521983551
189.3618501469
201.604984287335
214.826239029763
229.9871189551
247.441417413014
267.644977020667
291.162948276046
318.620454172919
349.635006027855
379.704770404193
405.41199185884
424.160502882328
432.964016264149
428.925228427509
413.048295966595
393.009922216652
381.18804441277
377.537319656606
376.045148045388
372.834982627685
251.261762333436
249.480615515565
251.03183655366
255.619721456515
266.172782621885
282.245645532013
292.69928243544
294.741050574288
288.412066804207
275.537334682367
258.013682594876
237.489812305225
216.242136310024
197.49533892839
181.49764866698
167.802349169345
155.996933438739
145.758348235239
136.843562758386
128.574548335829
120.350053477538
112.184995078365
104.185019200866
96.4519910810748
89.078494485147
82.2779744513992
76.4374165356648
71.6251696859289
67.8154632278545
65.0111236229698
63.2274863016459
62.4917627944557
62.5225954205122
62.4222437368347
62.449048527173
62.5247355036527
62.5916701757767
62.6497018148641
62.6939465061529
62.7253182084261
62.7430092241688
62.7486487909989
62.7433758561123
62.7290871651664
62.7073426699632
62.6797197981957
62.6474595963565
62.6116047552448
62.5729289414976
62.5320222406304
62.4893079587166
62.4451008264194
62.3996364528641
62.353106609733
62.3056797665134
62.2575187813359
62.2087905340529
62.159672293783
62.1103547853499
62.0610463730272
62.011981147159
61.9633285647475
61.9135718764768
61.8628784319696
61.8133525188921
61.7652907458067
61.7189029274841
61.6743858150448
61.6319188497714
61.5916622793126
61.553755775901
61.5183175817325
61.4854441828261
61.4552104301895
61.4276700702439
61.402856662016
61.3807847605168
61.3614513833626
61.3448377067452
61.3309107967596
61.3196256514764
61.3109271561655
61.3047521554597
61.3010315237272
61.2996923042465
61.300659790063
61.3038594890729
61.3092193257424
61.3166711257609
61.3261534531473
61.3376113778305
61.3510017699764
61.3662880481559
61.3834519780113
61.4024756282567
61.4233705995209
61.4461288323674
61.470792369864
61.4973308533005
61.5258202104993
61.5561021770289
61.5883669748854
61.6218889640979
61.6574733290815
61.6912168920354
61.7289863822955
61.7944462884266
62.0287230075564
62.2028508591775
63.0818146732875
64.8792806258144
67.6334037536542
71.3361406715536
75.9997081040759
81.6529320899069
88.21773631563
95.3262404211949
102.792636131821
110.544623434129
118.498227089181
126.56599863588
134.766634250475
143.662929782225
153.858113590656
165.58067884136
179.123708710803
194.845472668807
213.115749247321
233.570559185161
253.319310614981
270.1212246082
282.231900823894
287.732491016398
285.016746415947
275.529376141791
265.170274468443
260.404753943013
259.544733301232
258.408429248811
254.568743837463
181.026862300027
179.018265053782
180.549864553453
184.38323053637
191.597006381035
201.858014864198
208.015057842494
208.922544076785
204.379165146573
195.355904561717
183.060179736692
168.616384497647
153.609695350889
140.310271377051
128.943983954814
119.210517548664
110.817761014616
103.53716230575
97.1975265628906
91.3290508624101
85.5049330572789
79.7235382415123
74.0580616855054
68.5812032075489
63.3590572182034
58.540350351395
54.395443212163
50.9825496003282
48.2867299388426
46.316364422757
45.085039095611
44.619881580902
44.6909521183236
44.6383159597086
44.6871307240841
44.774485753378
44.8505503885074
44.9149158892456
44.9624101288827
44.9940523537151
45.0092753556633
45.0100773598588
44.998011412232
44.9753762588227
44.9440983407488
44.906061716051
44.8627586694693
44.8154284681025
44.7649989970022
44.712180186988
44.6574910971103
44.6013247876967
44.543983787078
44.4857190046279
44.4267529112412
44.3672985710447
44.3075700214489
44.2477889497737
44.1881881529768
44.1290139460809
44.0705059791104
44.012704670729
43.9545449121961
43.8968718387523
43.8409234932133
43.7869560828585
43.7351835331293
43.6858021505745
43.6389872780609
43.5948918080373
43.5536452238823
43.5153531810077
43.4800976112751
43.4479372611464
43.418908618986
43.3930271971539
43.3702890517187
43.3506725533319
43.3341403426181
43.3206413083437
43.3101128280762
43.3024829050091
43.2976723952727
43.2955972192374
43.29617063599
43.2993054060541
43.3049159453252
43.3129204636295
43.3232429097067
43.3358152280834
43.3505785414526
43.367486169222
43.3865027188818
43.4076084896233
43.4307943296414
43.4560689473159
43.4834460975227
43.5129534193767
43.5446082286578
43.578434384391
43.6143778027781
43.6524731818687
43.6922256144638
43.7339898241419
43.7744053626303
43.8184757241016
43.8850867557807
44.0953229904057
44.2468711642445
44.8664667466849
46.1120865474688
48.0228446884118
50.5950211564778
53.8372360028656
57.7681359902657
62.3213206917772
67.2484347484836
72.4306097366929
77.8227551343952
83.3712361460808
89.0229187955725
94.8133202651644
101.128070701347
108.358669480352
116.658801076368
126.223395606599
137.28546063908
150.061944270538
164.20928187662
177.79247750492
189.27027148462
197.405302923585
200.909358289174
198.921196778764
193.078202935514
188.275691513085
187.901558685773
189.239201836205
188.793588335179
184.801969735976
136.725079963002
134.452392097787
135.843284635016
139.240075465414
144.420358149155
150.946359931725
154.209361346588
154.242639733167
150.761558195238
144.163605323962
135.188438487786
124.616250646384
113.592350504833
103.775410654628
95.370184974665
88.1693859318579
81.9581475561366
76.5683310220523
71.8737412569256
67.5361971094318
63.2415780448296
58.9794386528067
54.8023335813377
50.7644238653066
46.9153153372234
43.3633400830905
40.3043457041593
37.7887742729866
35.808956367386
34.3769853486541
33.5061442144006
33.2228180461892
33.3303200610896
33.3186564577885
33.3859227731818
33.4826347831969
33.5651677863046
33.6327783031012
33.6803158126398
33.7089450050836
33.7185222267044
33.7114763156356
33.6898594995896
33.6563993905827
33.6134114212881
33.5630850506186
33.5071597256667
33.4470609120858
33.3838612508364
33.3183809160965
33.251226609453
33.182862084959
33.113649435604
33.0438907708476
32.9738535897827
32.9037906681042
32.8339509832252
32.7645865687688
32.6959559816642
32.6283231510165
32.5619047519377
32.4965744146448
32.431929573425
32.3688311162198
32.3080535370849
32.2498208209236
32.1943323139192
32.1417661602617
32.0922770617718
32.0459953557132
32.003026609741
31.9634517257928
31.9273275212916
31.8946876941327
31.8655441235106
31.8398884657697
31.817693936548
31.7989172924702
31.7835009395217
31.771375044008
31.762459845638
31.7566678580307
31.7539061186546
31.7540784385532
31.7570876633146
31.7628378686696
31.7712364993484
31.7821965360169
31.7956385066383
31.811492627221
31.8297004486218
31.8502170343169
31.8730119402099
31.8980701596323
31.9253935470012
31.954996343226
31.9869128357542
32.0211703986408
32.0578247439071
32.0968751951365
32.1383445483917
32.1821682795213
32.2280175014538
32.2759132948761
32.3229510467983
32.3734422842264
32.4431968751912
32.6333755746639
32.7595845848191
33.2051391396271
34.0904548201661
35.453882396623
37.2946642406879
39.6190878168241
42.4394019413252
45.6987878622268
49.2260140321074
52.9439153143537
56.8243177230403
60.8330355623592
64.9389090227795
69.1857995226718
73.8453938648713
79.17597869845
85.2828127901417
92.297368564394
100.371263061348
109.623873370739
119.73148234539
129.360651493577
137.417131349899
142.989739559151
145.187805963913
143.598957502215
139.903981335689
138.360643563045
140.808338680445
143.974372247567
144.493626659531
140.769123007077
107.360195024376
104.846337071231
106.00353344894
109.11984083772
113.037703069393
117.061553109158
118.253816906535
117.554330709099
114.7094318156
109.71084100809
102.955799163598
94.9817387519926
86.6372224889761
79.167725280111
72.7586085363347
67.2648295916195
62.5238578340869
58.4082753645308
54.8216541749044
51.513417117044
48.2461347544163
45.00477726163
41.8280856095532
38.7578164903322
35.8327816428093
33.1347772881908
30.8096334535141
28.9016202883894
27.4082975237457
26.3443741878053
25.7235541358875
25.5702103678054
25.7095506402525
25.7328640373054
25.8154439020586
25.9189257505388
26.0049251173223
26.0723710098324
26.1164308392873
26.1385182421108
26.1391000361298
26.1211266138048
26.087235568158
26.0406177502328
25.9839957340289
25.9198599648634
25.8501851370337
25.7765645793637
25.7001963422084
25.6219909796029
25.5426236064644
25.4626096688971
25.3823518369107
25.3021839111349
25.2223980636919
25.143265321777
25.0650469692155
24.9880014743727
24.912386972407
24.8384556552693
24.7664017085139
24.6958967155245
24.6271782922369
24.5608659836823
24.4974591092208
24.43714073337
24.3800756303078
24.3264057250214
24.2762489802344
24.2296991191115
24.1868258109313
24.14767529073
24.1122713717546
24.0806167593216
24.0526946198322
24.028470364399
24.0078935521238
23.9908999297707
23.9774135367602
23.9673487893242
23.9606127074238
23.9571070277329
23.9567303289729
23.9593801867189
23.9649552840329
23.973357544259
23.9844941135076
23.998279539282
24.0146376345891
24.0335036902234
24.0548260962535
24.0785684209559
24.1047109466637
24.1332504192468
24.1642043210407
24.1976008837741
24.2334971918397
24.2719330204292
24.3129993364664
24.3566942397187
24.4031012862451
24.4521042201761
24.5034955550046
24.557069430517
24.6103103281711
24.666961663532
24.7405302600088
24.9134534731554
25.0138469954125
25.3347078844493
25.9707882030206
26.9587583110786
28.2999368554675
29.998914920651
32.063737120137
34.4456834587585
37.0257284197455
39.7537423959068
42.6124801809726
45.5807652052465
48.6420580000961
51.8436601776265
55.3807445071025
59.4242633183282
64.0461677069285
69.3347992358922
75.3862329710704
82.254927092502
89.6362911640677
96.5911641083375
102.327257349047
106.157695979146
107.456162110958
106.086341995283
103.675450896678
104.004568366694
108.218771314739
112.883220016427
114.540782027249
111.439017703499
87.0853670092408
84.4082268362949
85.2776505806133
88.1877600790684
91.3317677431409
93.6482398906071
93.293632584728
91.9398647327135
89.459379024966
85.5484017265251
80.3366610948836
74.1787172662231
67.7126362942786
61.8925987744223
56.8862196292025
52.591751346896
48.8836842877263
45.6632101708811
42.8544837066619
40.2676158616637
37.7195274372113
35.1930462203753
32.7173112330408
30.3254475852017
28.0489201856417
25.9513829560148
24.1437878038794
22.6654840217822
21.5178987162
20.7176523710313
20.2790883726615
20.2230724079967
20.3894157262034
20.4421520204455
20.5368791469457
20.6441629017184
20.7302353639658
20.7938028491874
20.8306438132787
20.8425845894329
20.8308900174959
20.7991399511067
20.7506335490306
20.6890526704151
20.61752883489
20.5388340439171
20.4551487243093
20.3681991282574
20.2792724826665
20.1893337543581
20.0990915213011
20.0090789462323
19.9197060091373
19.8313053083603
19.7441609203006
19.6585293618474
19.5746514556428
19.4927593081855
19.4130772142178
19.3358021050345
19.2610057420679
19.1884922869586
19.1186466732541
19.051893044121
18.9885436065325
18.9287258847663
18.8725519307769
18.8201119853475
18.7714743464116
18.726685687966
18.6857717482048
18.6487383426563
18.6155726595344
18.5862447549593
18.5607092093912
18.5389069115438
18.5207668931392
18.5062082378634
18.4951420022521
18.487473096987
18.4831022638943
18.4819279473848
18.4838481571723
18.4887623955298
18.4965735068156
18.507189641571
18.5205259977716
18.5365069414406
18.5550676415878
18.5761563726281
18.5997359417091
18.6257859537613
18.6543043510888
18.6853070938077
18.7188333907594
18.7549338335834
18.7936929864155
18.8351748334232
18.8795069292033
18.9267073327536
18.9769126728275
19.0299984650512
19.0858498223381
19.1441368180327
19.2026805211992
19.2647414700699
19.3418238044953
19.4995715523834
19.5751357770781
19.8023701880454
20.2585605227692
20.9781985859662
21.9640843949299
23.2194421583158
24.7494546826108
26.5123500114962
28.4256255818843
30.4570023238887
32.5964417044036
34.8316415932932
37.1559136509381
39.616872863482
42.3568102736122
45.4880983622452
49.0588749663174
53.1271896126107
57.7500959006213
62.9380484390543
68.4056107146743
73.4793602162741
77.5799655100563
80.1844059585064
80.8510325856898
79.6131301747585
77.9787080170576
79.3032443207859
84.5029195560069
90.3089932194955
93.155451762931
90.9494775351082
72.5490728958175
69.8308923488565
70.4039958913827
73.1426535098904
75.839514305983
77.000482214739
75.461349358388
73.4960537767073
71.1943385773129
68.0351253113961
63.9281247416712
59.0812591367849
53.9762163439401
49.3545080010439
45.3674135708771
41.9441763231616
38.9864020413957
36.4160624795255
34.1720887503635
32.1079934911103
30.080460045417
28.0716425889715
26.1038174270201
24.2039192230335
22.3982547872582
20.7376719553644
19.3081040951704
18.1448823757838
17.2524266694342
16.6487122622494
16.348548233996
16.3677868350807
16.5561987219487
16.6329910229646
16.7364447061395
16.8441572164
16.9265601508572
16.9823412285946
17.0081878964179
17.0065515293632
16.9796755441688
16.9318768936224
16.8671686947809
16.7897289090367
16.7030705712208
16.6102006978848
16.5134488250249
16.4146145928229
16.3150152634929
16.2156135970468
16.117097934773
16.0199684535147
15.9245943628858
15.831261320393
15.7402016503977
15.6516156879281
15.5656840283751
15.4825742298926
15.402440187428
15.3253992068027
15.2513467134106
15.1803157151815
15.1125972877895
15.0484485451346
14.9880371277007
14.9314227106798
14.8786526877551
14.829756623214
14.7847467869613
14.7436188638338
14.70635291861
14.6729145673973
14.6432563189384
14.6173190185047
14.5950333678547
14.5763214986716
14.561098543114
14.5492742323507
14.5407544733983
14.5354428810659
14.5332423788722
14.5340567151443
14.5377919703121
14.5443581646658
14.5536707856903
14.5656525078464
14.5802346661477
14.5973592502746
14.6169803194143
14.639066344748
14.6636014628911
14.6905879776323
14.7200477951131
14.7520225434461
14.7865789061137
14.8237970688923
14.8637941147505
14.9066688115383
14.9525884688426
15.001611103151
15.0539234726254
15.1094357755047
15.168107514325
15.2295879517065
15.291991462858
15.3581672745682
15.4377186201924
15.581849802092
15.6348999183775
15.789920613371
16.1126493741146
16.6351604713886
17.3613450996792
18.2932683960541
19.4340314793034
20.7480463841979
22.1786240568834
23.7053675647278
25.3229513615993
27.0250768150994
28.8115603937326
30.7281382306472
32.8798275638171
35.3394880263257
38.1380096600706
41.3118596150187
44.8904728099835
48.8547672166158
52.9395695421748
56.6544004571303
59.5751291427029
61.3048544848484
61.5368096094135
60.4047441127108
59.2532626369613
61.0095519843414
66.5891297270242
73.1418855536119
77.1000924982392
75.9608932144299
61.7146995074979
59.1042795679034
59.4185797544925
62.0061758048143
64.483201702571
64.8982933315591
62.4483213078782
59.8962020870874
57.6366304226547
54.9969393260496
51.6975999907006
47.8217736073119
43.729594537308
40.0025420115528
36.7767057309673
34.0039697161803
31.6063612556433
29.5213634939144
27.6988600300531
26.0242445071118
24.3840077910113
22.7605448353432
21.1711306528129
19.6381559349013
18.1842120094999
16.8508415153203
15.7057094252945
14.7807416512729
14.0827519132455
13.6305722711586
13.4389877724798
13.5174693243079
13.7229379865518
13.8184375922491
13.9268508824821
14.0312586385106
14.1060210357528
14.1501036480165
14.161407921934
14.1432514984949
14.0990156930657
14.0338392296663
13.9524597397881
13.8595150120699
13.7588284940029
13.6535561912084
13.5460841195171