/*--------------------------------*- C++ -*----------------------------------*\
| =========                 |                                                 |
| \\      /  F ield         | OpenFOAM: The Open Source CFD Toolbox           |
|  \\    /   O peration     | Version:  4.1                                   |
|   \\  /    A nd           | Web:      www.OpenFOAM.org                      |
|    \\/     M anipulation  |                                                 |
\*---------------------------------------------------------------------------*/
FoamFile
{
    version     2.0;
    format      ascii;
    class       volScalarField;
    location    "30000";
    object      p;
}
// * * * * * * * * * * * * * * * * * * * * * * * * * * * * * * * * * * * * * //

dimensions      [0 2 -2 0 0 0 0];

internalField   nonuniform List<scalar> 
21000
(
0.931747654663854
0.948745262313398
0.946553999240668
0.962317713413415
0.974325369441209
0.989128969136012
0.997922786817798
1.00259288727729
1.00560902398824
1.00758278200823
1.00918898062257
1.01045949265334
1.0115965685547
1.01262673308552
1.01361522280134
1.01453755131896
1.01544308158596
1.01630679828127
1.01716055478171
1.01798322657706
1.01878104190891
1.01955404711892
1.02030499411644
1.0210364237868
1.02174910194902
1.02244875310222
1.02313734535033
1.02382660320834
1.02448487566033
1.0251621337393
1.02575008345897
1.02640664432799
1.02681441494011
1.02741703435004
1.02787411856107
1.02841283254132
1.02892019458498
1.02950300508727
1.03013512002336
1.0308745552951
1.03172787291944
1.0327304767833
1.03389641451903
1.03524732677126
1.03679460425375
1.03854993292903
1.04051934843241
1.04270728042504
1.04511478859299
1.04774123309963
1.05058386495748
1.05363856067682
1.05689979130474
1.06036095907832
1.06401444603784
1.06785177876043
1.07186368599271
1.07604019614374
1.08037069812839
1.08484401908074
1.08944849275187
1.09417204002401
1.09900225481907
1.10392649722376
1.10893198621185
1.11400589406443
1.11913544220043
1.12430799652315
1.12951115988996
1.13473286000251
1.13996143136297
1.1451856899468
1.15039499956331
1.15557932898408
1.16072929977319
1.16583622375356
1.17089213146076
1.17588978982575
1.18082271271973
1.18568515929405
1.19047213168694
1.19517935222495
1.19980325906522
1.20434095382556
1.20879021867713
1.21314940480603
1.21741752940509
1.22159401924954
1.22567903483913
1.22967284115612
1.23357672797259
1.23739143298698
1.24111956075882
1.24476166241397
1.2483223051906
1.25180051569913
1.25520450302665
1.25852889759967
1.26178949911395
1.26497028773683
1.26810349878532
1.27114899296734
1.27417448087608
1.27708779821496
1.2800305280936
1.28280658366709
1.28569667370919
1.28835450181919
1.29107159727077
1.29362396842388
1.29641784412283
1.29924506135853
1.30228400985933
1.30544068927113
1.30874755847432
1.31214718685501
1.31558732817023
1.31889856075611
1.32193438951584
1.3244477006147
1.32627698094309
1.32714741419371
1.32698153329473
1.32571857261758
1.32328578018579
1.31928801233297
1.31370267050967
1.30543179753507
1.29428672289787
1.27711724476225
1.25213741629804
1.21660266133452
1.16768113873641
1.10148119474203
1.01895378126623
0.93200432865139
0.884519911653974
0.888249446377523
0.8956815669427
0.927391535115432
0.931799577269096
0.948778094439694
0.946666166507591
0.962363007015215
0.974241461808429
0.988897423029907
0.997720752075123
1.00245476573815
1.00551652046213
1.00752091101526
1.00914505492556
1.01042913966349
1.01157469237762
1.0126104757619
1.01360303488064
1.01452864506728
1.01543656522297
1.01630229809137
1.01715744088393
1.01798186305111
1.01878153270674
1.0195565295586
1.02030949268223
1.02104298886157
1.02175769595983
1.02245919030781
1.02314891853096
1.02383925137564
1.02449779612702
1.02517564921618
1.02576340755453
1.02642093755389
1.02683280786468
1.02743777553235
1.02789658302173
1.02843767023719
1.02894714628866
1.02953209934757
1.03016602452147
1.03090704900741
1.03176159913207
1.03276513178212
1.03393166710063
1.03528288733852
1.03683019732172
1.03858531743504
1.04055430504728
1.04274161418248
1.04514832139205
1.04777380178795
1.05061531706
1.05366875263127
1.05692858662749
1.06038822781722
1.06404006458602
1.06787563031439
1.07188566126657
1.07606019432898
1.08038862792348
1.08485979975347
1.08946205515196
1.0941833274661
1.09901122373954
1.1039331176572
1.10893624210066
1.11400778332395
1.11913497655137
1.124305201139
1.1295060728508
1.13472553158038
1.13995192316068
1.14517407391476
1.15038135692227
1.15556374908033
1.16071187889217
1.16581706391919
1.17087133924175
1.17586747517136
1.18079898784694
1.18566013763321
1.19044592691324
1.19515207737097
1.19977502574039
1.20431187151778
1.2087603941982
1.21311894177635
1.21738652796439
1.2215625756583
1.22564724154998
1.22964078634672
1.23354449623415
1.23735910430893
1.2410872125382
1.24472936665234
1.24829013363772
1.25176853222936
1.25517277647946
1.25849748191741
1.26175846479767
1.26493967289542
1.26807338287173
1.27111938567617
1.27414547650845
1.27705936493901
1.28000272189686
1.28277934016741
1.2856685490529
1.28832863118627
1.29106160583638
1.29363181544945
1.29644225287998
1.29928556509802
1.30234100280535
1.30551237751907
1.30883210254756
1.31223946793454
1.31567800577867
1.31897618974755
1.32198624951452
1.32446193742633
1.32624257438487
1.32705835234683
1.32683748885194
1.32551652719758
1.3230134520176
1.31893385817996
1.31323605819214
1.30481665010323
1.29343676857045
1.27593307330718
1.25055427384896
1.21456303548962
1.16516525530576
1.09865816606967
1.01642211936465
0.930843923559222
0.884728946758399
0.888741402342091
0.896045385766361
0.927538235564177
0.931862105236615
0.948826831379177
0.946789947892233
0.96244375516255
0.974201798542065
0.988708696588674
0.997539111358632
1.00232412444362
1.00542709015292
1.00746038774184
1.00910202209279
1.01039927109292
1.01155323899149
1.01259451378577
1.01359103640367
1.01451978362654
1.01543001724458
1.01629764647742
1.01715407948642
1.01798008075938
1.01878145800587
1.01955829710146
1.02031313774517
1.02104858017849
1.02176523350583
1.02246855642629
1.02315945524573
1.02385096390977
1.02450990118878
1.02518867112637
1.02577649903637
1.02643597230916
1.02685209538584
1.02746011397927
1.02792056173427
1.02846423949447
1.02897575472393
1.02956284272843
1.03019842329648
1.03094087709988
1.03179642892473
1.03280065010493
1.03396751860643
1.03531878615948
1.03686587062767
1.03862053880501
1.04058887039701
1.04277534811071
1.04518106526019
1.04780541288617
1.05064566273714
1.05369770892989
1.05695603594242
1.06041405854135
1.06406417078335
1.06789791226428
1.07190602612474
1.07607855710066
1.08040491244711
1.08487393973119
1.08947399509022
1.09419302347761
1.09901864410262
1.10393824328373
1.10893906679964
1.1140083138125
1.11913323226518
1.12430121387052
1.12949988621007
1.13471720030251
1.13994151228143
1.14516165783765
1.15036701840347
1.15554757815521
1.16069397176904
1.16579752186274
1.17085026746893
1.17584498177587
1.18077518277905
1.18563513172763
1.19041983101891
1.19512500152107
1.19974707849148
1.2042831592498
1.20873102075349
1.21308900779153
1.21735613099868
1.22153180924781
1.22561619631798
1.22960954796318
1.23351314877405
1.23732772505633
1.24105588077171
1.24469815022194
1.24825911089943
1.25173775833305
1.25514233673014
1.25846740961324
1.26172886812791
1.26491054070987
1.26804487846366
1.27109140373084
1.27411829514526
1.27703269028929
1.27997700676472
1.28275395125107
1.2856429286785
1.28830342931161
1.2910515616974
1.29363758850175
1.2964634061972
1.29932117646777
1.30239164793332
1.30557613973314
1.30890715798217
1.31232075756877
1.31575662078507
1.31904129545332
1.3220260843592
1.32446551335863
1.32620006831172
1.32696462533303
1.3266924446452
1.32531686138571
1.32274749547514
1.318589811389
1.31278491726163
1.30422217516187
1.29261783159795
1.27479873994973
1.24904842888092
1.21263823722699
1.16281883067771
1.09607815874689
1.01420193595357
0.929963496910349
0.885081631997454
0.889292384354385
0.896436053055807
0.927714055172987
0.931939301862429
0.94888455363959
0.946911929748034
0.962523193091908
0.974171488846691
0.988537450738491
0.997370932688045
1.00219949432095
1.00534015735943
1.00740095182343
1.00905955236536
1.01036968169019
1.01153197576086
1.01257871605484
1.01357918529862
1.014511038785
1.01542357616108
1.01629310126986
1.01715083738699
1.01797840023544
1.0187814611805
1.01956012302965
1.02031682750515
1.02105420357069
1.02177279099591
1.02247793675083
1.02317004997966
1.02386275849551
1.02452219869327
1.02520191284273
1.02579006785939
1.02645156033231
1.0268713315365
1.0274823155324
1.02794429567062
1.028490250592
1.02900350959128
1.02959235414238
1.03022923718407
1.03097275444119
1.03182898500658
1.03283360395212
1.03400056996943
1.03535169818689
1.03689842391859
1.03865255324293
1.04062018474863
1.0428058227794
1.04521057239131
1.04783383510868
1.05067288873813
1.05372363256592
1.0569805548594
1.06043707430853
1.06408558909505
1.06791764375534
1.07192398724521
1.07609467117284
1.08041911068951
1.08488616226593
1.08948419181633
1.09420115477868
1.09902468127925
1.10394216908221
1.10894087566771
1.11400801180212
1.11913083689244
1.12429675378215
1.12949340070108
1.13470873869975
1.13993113321216
1.14514942840439
1.15035301328658
1.15553187866415
1.16067666486456
1.16577869916851
1.17083002429257
1.17582341615524
1.18075239457157
1.18561122174614
1.19039490024858
1.19509915037963
1.19972040622375
1.20425576330936
1.20870299644992
1.21306044771692
1.21732712508492
1.22150244398387
1.22558655563543
1.22957971154731
1.23348319487659
1.237297726102
1.24102591090395
1.24466827369681
1.24822940129825
1.25170826885514
1.25511314768645
1.25843855486249
1.26170044969416
1.26488255211654
1.26801747456095
1.27106448925785
1.27409213958612
1.27700700581409
1.27995226952886
1.28272946819108
1.28561874034436
1.28827774358398
1.29104030362941
1.29364085532018
1.2964816403509
1.29935378613664
1.30243939350025
1.30563732741167
1.30897996841811
1.31240029269104
1.31583404109878
1.31910585286611
1.3220661069166
1.32447010756913
1.32615959542751
1.32687391610705
1.32655103669812
1.32512122064716
1.32248605195472
1.31825072387845
1.31233949526933
1.30363456397781
1.29181006114305
1.27368610620493
1.24758167094465
1.21078178342258
1.16059187839874
1.09370027351436
1.01227452126164
0.929385802940481
0.885603101273355
0.889876973344155
0.896826807342343
0.927897097041011
0.932034900412916
0.94895373136609
0.947040282131942
0.962603088032003
0.974144300878174
0.988371741154167
0.997207834130018
1.00207558798645
1.00525215764222
1.00734017825895
1.00901587700491
1.01033913301168
1.01150999508295
1.01256240538061
1.01356697508794
1.0145020470255
1.01541697917069
1.01628848986077
1.01714760266174
1.01797678772186
1.01878158794278
1.01956213811955
1.02032077940862
1.02106016539982
1.02178076286175
1.02248780233276
1.02318122395535
1.02387519358129
1.02453526495261
1.02521594582566
1.02580467891523
1.02646820578133
1.02689119072876
1.02750505331701
1.02796852078677
1.02851646004724
1.02903121514856
1.02962146020772
1.03025932231876
1.03100355486164
1.03186016012856
1.03286489976706
1.03403174088837
1.03538255344582
1.03692879580633
1.03868230477279
1.04064919416984
1.04283398191118
1.04523777927248
1.04785999215381
1.05069790004652
1.05374740356149
1.0570029920631
1.06045808605873
1.06410508641136
1.06793554151687
1.07194020537348
1.07610913584561
1.08043175547434
1.0848969291609
1.08949303210461
1.09420802964745
1.09902956221709
1.10394503848527
1.1089417269945
1.11400684944889
1.11912767607853
1.12429162023591
1.12948633021087
1.13469977654332
1.13992033348191
1.14513685324803
1.15033873208171
1.15551596714523
1.16065920422246
1.16575977513869
1.17080972624912
1.17580183622864
1.18072962679809
1.18558736126607
1.1903700425662
1.195073390676
1.19969383876805
1.20422848089704
1.20867509002129
1.21303200587408
1.21729823402937
1.22147318693584
1.22555701339674
1.22954996130554
1.23345331222671
1.23726778185367
1.24099597674588
1.24463841344637
1.24819968575088
1.25167875268552
1.25508390701325
1.25840962858531
1.26167193214027
1.26485444867799
1.26798992530555
1.27103742223672
1.27406579965553
1.27698113635693
1.27992733853205
1.2827047523931
1.2855947754358
1.28825028714564
1.29102703963373
1.29364163475964
1.29649770339886
1.29938495354159
1.30248663355902
1.30569911863139
1.30905440021081
1.31248237253385
1.31591452317419
1.31917353183747
1.32210879458493
1.32447648705074
1.32611972515528
1.32678235155774
1.32640693357956
1.32492067168845
1.32221702033892
1.31790083847244
1.31187902451539
1.30302671731849
1.2909767278351
1.27254578207788
1.24609076066772
1.20891694236068
1.15839805470389
1.09144257574537
1.01059451561851
0.92914646967856
0.88637803502638
0.890554224854248
0.897245227559714
0.928091245850585
0.932151458367655
0.949037522084609
0.947180531780985
0.962687852173377
0.974121156673694
0.988211004068476
0.997049990101227
1.00195253989717
1.00516304311791
1.00727794182954
1.00897086172263
1.01030750449736
1.01148720232948
1.01254550393451
1.01355434503581
1.0144927592475
1.01541018682931
1.01628377806961
1.01714434285151
1.01797520970981
1.01878180407218
1.01956430730538
1.02032495864986
1.02106643313735
1.02178912272903
1.02249813534417
1.02319296790096
1.02388826929483
1.02454910854408
1.02523079186671
1.02582035061468
1.02648595209392
1.02691175854009
1.02752841859044
1.0279932984746
1.02854290201012
1.029058864611
1.02965010928477
1.03028857903237
1.03103313354326
1.03188976904511
1.03289431967217
1.03406078894952
1.03541109346661
1.03695671906195
1.0387095236077
1.04067563086547
1.04285956288181
1.04526243025673
1.04788363612179
1.05072045641889
1.05376878865135
1.05702312017099
1.06047687095749
1.06412244298529
1.06795138740178
1.07195446250909
1.07612173189504
1.08044262509841
1.08490601511575
1.08950028610231
1.09421341275973
1.09903304551535
1.10394660354492
1.10894136590974
1.11400456476404
1.11912348067168
1.12428553701882
1.1294783917064
1.1346900243522
1.13990881765459
1.1451236315803
1.15032386934907
1.15549953429256
1.16064127752787
1.16574043536424
1.17078905779467
1.1757799263076
1.18070656463494
1.18556323734412
1.19034494792231
1.19504741625299
1.19966707484073
1.20420101655042
1.20864701275185
1.21300340116662
1.21726918521557
1.22144377474556
1.22552731630717
1.22952005466754
1.23342326976399
1.23723767325909
1.24096587210067
1.24460837635714
1.24816978530679
1.25164904474559
1.25505446517694
1.25838049541825
1.26164319732813
1.26482612575086
1.26796214577836
1.27101012847741
1.27403922555227
1.2769550352158
1.27990220331835
1.28267976729773
1.28557101672276
1.28822093301688
1.29101160017534
1.29363977051758
1.29651148214483
1.29941459847615
1.30253334600855
1.30576150862644
1.30913043039312
1.31256685814875
1.3159977179616
1.31924370149659
1.32215319963395
1.32448339289699
1.32607893066073
1.32668820103248
1.32625824716402
1.32471312209949
1.32193804370082
1.31753742415632
1.31140032699706
1.30239494241319
1.29011385480773
1.27137441909142
1.2445744833046
1.20704705766869
1.15624927015298
1.08933072888633
1.00920682850855
0.929311101966753
0.887474717029109
0.891371636653516
0.897712381887565
0.928299782793573
0.932292344689077
0.949138909444985
0.947337074873187
0.962780203663705
0.974102092299086
0.988054713879569
0.996898452145781
1.0018313541723
1.00507338587287
1.00721453682273
1.00892466037268
1.01027487354841
1.01146364010348
1.01252803618878
1.01354131321027
1.014483188243
1.01540320879644
1.01627897270519
1.01714106231647
1.01797366489692
1.01878210066007
1.01956661305657
1.02032933963824
1.02107297391412
1.02179783286126
1.02250889394393
1.02320524063208
1.02390194255477
1.02456369123003
1.02524640755359
1.02583703485277
1.02650472775571
1.02693293442395
1.02755225354936
1.02801841595183
1.0285692832484
1.02908608510248
1.02967784004235
1.03031646633243
1.03106087777364
1.03191714309376
1.03292115472557
1.03408698186816
1.03543657762863
1.03698145769524
1.03873348847076
1.04069879561832
1.04288189332981
1.04528388250038
1.04790415466428
1.0507399757153
1.0537872347343
1.05704041336471
1.06049292836717
1.0641371810807
1.06796472424461
1.07196631975689
1.07613203648455
1.08045131069879
1.08491302331426
1.08950556731129
1.09421692618942
1.09903476040548
1.10394649954648
1.10893943268271
1.11400080215431
1.11911789856268
1.12427815504312
1.12946923884516
1.1346791384327
1.13989624475963
1.14510942538702
1.15030809040971
1.15548224927106
1.16062255841121
1.16572035865769
1.17076770371711
1.1757573780069
1.18068290741568
1.1855385579473
1.19031933384054
1.19502095510521
1.19963985380512
1.2041731218642
1.20861852929864
1.21297441208636
1.21723977170948
1.22141401570734
1.2254972885299
1.22948983217699
1.23339292496582
1.23720727506551
1.24093548948602
1.24457807281318
1.2481396287361
1.25161909191267
1.25502478784568
1.25835113888195
1.26161424779612
1.26479760267909
1.26793417455028
1.27098266086371
1.2740124902365
1.27692878390841
1.27987697022668
1.28265460645395
1.28554757434704
1.28818983988452
1.29099405200717
1.29363526198994
1.29652293136996
1.29944263496794
1.3025794047466
1.30582429154163
1.30920773103234
1.31265321798607
1.316082846435
1.31931532448929
1.32219806888113
1.32448942946978
1.32603576642404
1.32659004917311
1.3261036290622
1.32449727623693
1.32164788161645
1.3171592735066
1.31090231174955
1.301738478358
1.28922170170093
1.27017457810253
1.24303927027285
1.20518470664232
1.1541670778874
1.08739666300074
1.00815178860264
0.929925346465029
0.888941132766542
0.892369644579541
0.89824910130386
0.92852604467429
0.932462253844894
0.949261309862981
0.947514924846051
0.962882947715058
0.974086786447174
0.987901113543518
0.996753529505207
1.00171275437995
1.00498361469446
1.00715016882934
1.00887736002599
1.01024126983931
1.01143931378402
1.01250999750485
1.01352787566877
1.01447333173208
1.01539604444289
1.01627407511301
1.01713776339946
1.01797215467617
1.01878247579845
1.01956904906931
1.02033391203834
1.02107977390644
1.02180687796391
1.02252006088917
1.0232180264137
1.02391619487838
1.0245789977179
1.02526276592394
1.02585469543101
1.02652445426503
1.02695460616912
1.02757636437916
1.02804361441281
1.02859524689979
1.0291124279041
1.02970410389248
1.03034235006524
1.03108608020402
1.03194152281195
1.03294461326814
1.03410951613382
1.03545820767462
1.03700223259828
1.03875344934142
1.0407179738508
1.04290029729419
1.04530149926679
1.04792094892348
1.05075589420011
1.05380220950016
1.05705436647981
1.0605057756886
1.0641488359807
1.06797510057311
1.07197533439765
1.07613961137858
1.08045737453357
1.0849175128528
1.08950842819153
1.09421811294388
1.09903423793641
1.10394424337525
1.10893542840603
1.11399504567464
1.1191103959754
1.12426892235626
1.1294583015917
1.13466653118298
1.13988201054544
1.14509361505517
1.15029076191489
1.15546346692101
1.16060239208375
1.16569888299645
1.17074499732352
1.17573352265021
1.18065798724786
1.18551265877226
1.19029254241351
1.19499335849168
1.19961153879511
1.20414417445894
1.20858903427555
1.21294445260337
1.21720942907561
1.22138336903383
1.22546641486512
1.22945880592718
1.23336181886154
1.23717615856217
1.24090443182972
1.2445471382675
1.24810888519494
1.25158859737909
1.25499461333503
1.25832133194662
1.26158489237561
1.26476872237644
1.26790589041072
1.27095492993286
1.27398553949301
1.27690235463131
1.2798516460453
1.28262928833321
1.28552447147084
1.28815726965746
1.29097464274326
1.29362834412391
1.29653225609782
1.29946921619316
1.30262487810717
1.30588737794356
1.30928598572704
1.31274079166365
1.31616884295564
1.31938691007919
1.32224153010321
1.32449241887346
1.32598784162211
1.32648538452017
1.32594050473562
1.32427048851833
1.3213437939611
1.31676350763312
1.31038197613081
1.30105435451866
1.28829778201383
1.26894514779411
1.24148653246951
1.20333539763906
1.15216251516771
1.08565611106224
1.00744609215226
0.931007544065232
0.890807375365625
0.893585849417762
0.898880056559895
0.928775656712299
0.932667403303923
0.949408881292669
0.947719944166034
0.962999605622824
0.974075361649239
0.987747972027788
0.996615118999363
1.00159737431088
1.00489414062516
1.00708503754961
1.00882904193914
1.01020671696619
1.01141422273017
1.01249137666218
1.01351402256302
1.01446318268333
1.01538868933774
1.01626908355952
1.01713444568551
1.01797067805935
1.01878292541563
1.01957160670458
1.02033866277243
1.02108681599413
1.02181623896419
1.02253161453954
1.0232313040059
1.02393100078876
1.02459500316132
1.02527982673443
1.02587327742508
1.02654502513654
1.02697663170025
1.02760050914612
1.0280685718027
1.02862035862882
1.0291373542174
1.02972825458462
1.03036549531695
1.03110793597656
1.03196205929038
1.03296382677438
1.03412752650056
1.03547514012712
1.03701823574393
1.0387686423775
1.04073245013655
1.04291410829635
1.04531466061458
1.04793344096947
1.05076766994239
1.05381320008162
1.05706448824866
1.06051493558012
1.06415693660216
1.06798204406988
1.07198102568035
1.07614396058565
1.08046029904451
1.08491893884532
1.08950829092971
1.09421635810419
1.09903082239665
1.10393913526235
1.10892860693298
1.11398650126596
1.11910013021613
1.12425694771505
1.12944464103005
1.13465121765325
1.13986508638773
1.14507513131212
1.15027077757327
1.15544204809369
1.16057961115512
1.1656748177369
1.1707197299954
1.17570713912973
1.18063057614754
1.18548431062271
1.19026334887891
1.19496341164538
1.1995809304655
1.20411299564452
1.20855737466417
1.2129124001129
1.21717706960677
1.22135078606087
1.22543368958508
1.22942601661465
1.2333290418753
1.237143466688
1.24087189735132
1.24451482823877
1.24807686983401
1.25155693701823
1.25496338031836
1.2582905758872
1.26155469707928
1.26473911336994
1.2678769871839
1.27092668924513
1.27395819097786
1.27687561840864
1.27982616076821
1.28260378700845
1.28550168612013
1.28812362282278
1.29095381135758
1.29361944819227
1.29653981661465
1.29949455731523
1.30266975940249
1.30595042204773
1.3093644118333
1.3128282108597
1.31625370110215
1.31945580887961
1.32228037296172
1.32448870425398
1.32593118533954
1.32637006080352
1.32576464931276
1.32402845873572
1.32102137750142
1.31634555849439
1.30983457882684
1.30033776392936
1.28733754107585
1.26768246055035
1.23991429567021
1.20149974837197
1.15023888437696
1.08411211731299
1.00708696677736
0.932551490273509
0.893084622170741
0.895052417512336
0.899632737515954
0.929057140934245
0.932915759031492
0.949586724769391
0.94795891160582
0.96313450547913
0.974068619984109
0.987592865460788
0.996482757512629
1.00148583416491
1.0048054160274
1.00701937899917
1.00877981238229
1.01017125413133
1.01138837590678
1.01247216735566
1.01349974668286
1.01445273559722
1.01538113995388
1.01626399669748
1.01713110868631
1.01796923337947
1.01878344387844
1.01957427434713
1.02034357402272
1.02109407625559
1.02182588785869
1.02254352207458
1.02324503855053
1.02394631837485
1.02461166258109
1.02529752438873
1.02589269389423
1.0265662887854
1.02699881811319
1.02762437314805
1.02809287512307
1.02864407763723
1.02916020625343
1.02974952170503
1.03038504388598
1.03112552569042
1.03197780330547
1.03297784532604
1.03414008733538
1.03548649265809
1.03702864042689
1.03877830274509
1.04074152228923
1.04292268337905
1.04532277612964
1.04794108403154
1.05077478941512
1.053819714945
1.05707029745507
1.06051992539159
1.06416098726734
1.06798503478576
1.07198283863336
1.07614448398847
1.08045942959869
1.0849165835792
1.08950436709901
1.09421079597265
1.09902356560298
1.10393014019738
1.10891784341456
1.11397395253017
1.11908579293144
1.12424083169983
1.12942676882935
1.13463162397127
1.13984381738596
1.14505224379537
1.1502463380748
1.15541613187621
1.16055230115842
1.16564620347925
1.17068990646054
1.17567620566848
1.18059863538126
1.18545146741607
1.19022970936323
1.19492908230643
1.1995460173399
1.20407760357645
1.20852160673498
1.21287635703909
1.21714084948395
1.22131448379554
1.22539739715396
1.22938982217409
1.23329303106874
1.23710772053881
1.24083649593919
1.24447984513313
1.24804238159132
1.25152300864264
1.25493008900935
1.25825797379382
1.26152287134772
1.26470808906481
1.26784688637643
1.2708974615365
1.27393007413812
1.27684829888675
1.27980033494794
1.28257801346998
1.28547914690594
1.288089425127
1.29093215527392
1.29360912877021
1.29654600648472
1.29951874765292
1.30271370226107
1.30601247249271
1.30944131927876
1.31291288857487
1.31633388817501
1.31951758173886
1.32230938364281
1.3244724668143
1.32585956379943
1.32623763180877
1.32556955112715
1.32376463161633
1.3206740093826
1.31589865696213
1.30925317546228
1.29958163632459
1.28633396649984
1.26637994214243
1.23831686299374
1.19967312477191
1.14839141759108
1.08275506783647
1.00705305391431
0.934527386532244
0.895763826452118
0.896792788807501
0.900535480301974
0.929382073184581
0.933217137746583
0.949801066391716
0.948239635120492
0.96329289296661
0.97406823570406
0.987433630272141
0.99635520301241
1.00137870497436
1.00471792790063
1.00695346484529
1.00872980344731
1.01013493730604
1.01136179281981
1.01245236877072
1.01348504375215
1.01444198675084
1.01537339391088
1.01625881391871
1.01712775230659
1.01796781893834
1.01878402478759
1.01957703828793
1.02034862409684
1.02110152469382
1.02183578812899
1.02255573947957
1.02325918091604
1.02396208786552
1.0246289083163
1.02531576403007
1.02591282036772
1.02658803899033
1.02702091250216
1.02764755793968
1.02811600866097
1.02866574656687
1.02918020066288
1.0297670101094
1.03040002118933
1.03113783085384
1.0319877293821
1.03298566967798
1.0341462514387
1.03549138803963
1.03703264852085
1.03878171331138
1.04074454967681
1.04292544933089
1.04532532747599
1.04794339991392
1.05077679842992
1.05382130710134
1.05707133727589
1.060520261585
1.06416046124981
1.06798348696163
1.07198011343038
1.07614043364763
1.08045391718254
1.08490948489428
1.08949557257754
1.09420021162484
1.09901111427774
1.10391576166861
1.10890149482405
1.11395560855535
1.11906544584712
1.12421849105995
1.12940246095035
1.1346053912081
1.13981571721344
1.14502234772458
1.15021473042203
1.15538290840943
1.16051756766471
1.16561007426653
1.17065250283945
1.17563765445203
1.18055906739651
1.18541101610441
1.19018850946563
1.19488726862626
1.19950372368055
1.20403496172924
1.2084787457562
1.21283340241136
1.21709792285009
1.22127170212443
1.22535487320597
1.2293476631773
1.23325134060574
1.23706659557115
1.24079603175074
1.24444012794684
1.24800350067006
1.25148503801049
1.25489311639012
1.25822205584366
1.26148810408246
1.26467449546314
1.26781459729951
1.27086641231054
1.27390051795089
1.2768198755803
1.27977379897734
1.28255175044053
1.2854566892628
1.28805526180938
1.29091035155544
1.29359794318029
1.29655108211337
1.29954151531533
1.30275571210934
1.30607157833367
1.30951362487227
1.3129905211435
1.31640374664636
1.3195653433819
1.32232063417376
1.32443496348705
1.32576367203764
1.32607850492552
1.32534553520143
1.32346929771749
1.32029192675469
1.31541288489039
1.30862762298441
1.2987755561795
1.28527635262734
1.26502665264287
1.23668306802969
1.19784356834171
1.14660501808768
1.08156089126696
1.00730411723774
0.936882823890298
0.898815625834114
0.898819091713335
0.901615203554317
0.929764957300608
0.933583024902257
0.950059332363113
0.94857097619158
0.963481031634864
0.974077007952839
0.987268830784214
0.996230143530016
1.0012764768294
1.00463219042569
1.00688759997014
1.00867917292534
1.01009783988292
1.01133450428502
1.0124319860409
1.01346991257798
1.01443093423013
1.0153654499818
1.01625353540365
1.01712437693873
1.01796643317475
1.01878466121903
1.01957988297206
1.02035378757019
1.02110912515107
1.02184589425876
1.02256821059503
1.02327366600482
1.02397822918611
1.02464664629277
1.02533441665975
1.02593348806537
1.02661000465909
1.0270425934975
1.02766957258835
1.02813734548557
1.02868458672249
1.02919642943106
1.02977970919991
1.03040935515514
1.03114376304839
1.03199077467607
1.03298629856201
1.03414510385054
1.03548901223106
1.03702955054473
1.03877826446386
1.04074101075208
1.0429219561062
1.04532191612493
1.04794001968618
1.05077333466947
1.05381759758052
1.05706718901577
1.06051546326802
1.06415479386897
1.06797673167367
1.07197205780509
1.0761308763846
1.08044267185501
1.08489638303894
1.0894804660444
1.0941829724689
1.09899163729555
1.10389396521371
1.10887732107594
1.11392902381801
1.1190364405802
1.12418707943702
1.12936868012448
1.13456930027703
1.13977739590411
1.14498189484022
1.15017226208165
1.15533855611838
1.16047147627845
1.16556239987119
1.17060341061479
1.17558731656493
1.18050766093137
1.18535872111527
1.19013550716871
1.19483373969604
1.19944984681506
1.20398091225947
1.20842469470501
1.21277951532977
1.21704435953584
1.22121861542635
1.2253024097832
1.22929596157443
1.2332005339831
1.23701680747045
1.2407473829533
1.24439272631615
1.24795745737635
1.25144044321346
1.25485007686552
1.25818063739704
1.26144842012098
1.26463656776676
1.26777857490643
1.2708322114426
1.27386841761553
1.2767894592871
1.27974587942186
1.28252455015152
1.28543397610578
1.2880216610359
1.29088903072315
1.2935862794421
1.29655494173393
1.29956195019883
1.30279380739827
1.30612439544098
1.30957646966542
1.31305459958116
1.31645501525254
1.31958925644104
1.32230293848828
1.32436393432266
1.32563048283566
1.32587922025934
1.32507896718639
1.32312872858161
1.31986129724682
1.31487417938372
1.30794350270242
1.29790457127779
1.28414894034237
1.26360570557648
1.23499444505438
1.19598977509949
1.14485239143275
1.08049026288583
1.00778241959964
0.939546085239857
0.902191920515153
0.901130431529036
0.902894869810306
0.930222639038189
0.934026018094259
0.950370008561211
0.948962687296053
0.96370620855062
0.97409907812046
0.98709741400334
0.996104939515846
1.00117949334496
1.00454873960142
1.00682212222674
1.00862810585523
1.01006005466031
1.01130655430092
1.01241103158161
1.01345435585221
1.01441957842539
1.01535730843376
1.01624816240664
1.01712098373474
1.01796507493785
1.01878534599551
1.01958279119702
1.02035903528446
1.02111683496411
1.02185615085409
1.02258086563005
1.02328841035411
1.02399463866815
1.02466475126001
1.02535331318685
1.02595447573374
1.0266318381502
1.02706346187841
1.02768982497462
1.02815614027563