/*--------------------------------*- C++ -*----------------------------------*\
| =========                 |                                                 |
| \\      /  F ield         | OpenFOAM: The Open Source CFD Toolbox           |
|  \\    /   O peration     | Version:  4.1                                   |
|   \\  /    A nd           | Web:      www.OpenFOAM.org                      |
|    \\/     M anipulation  |                                                 |
\*---------------------------------------------------------------------------*/
FoamFile
{
    version     2.0;
    format      ascii;
    class       surfaceScalarField;
    location    "30000";
    object      phi;
}
// * * * * * * * * * * * * * * * * * * * * * * * * * * * * * * * * * * * * * //

dimensions      [0 3 -1 0 0 0 0];

internalField   nonuniform List<scalar> 
41710
(
8.60148293634957e-06
7.81625713127807e-07
8.1532114706663e-06
4.48271465683627e-07
5.48505050444326e-06
2.66816096622321e-06
1.9856458052604e-06
3.49940469918152e-06
-8.56672571855706e-07
2.8423183771148e-06
-2.0015920058547e-06
1.1449194339982e-06
-1.86936969769399e-06
-1.3222230815982e-07
-1.53869364561905e-06
-3.30676052075789e-07
-1.27263536996615e-06
-2.66058275654817e-07
-1.10119286300482e-06
-1.71442506961574e-07
-9.95883588965187e-07
-1.05309274039818e-07
-9.4128854884039e-07
-5.45950401261913e-08
-9.20143572096773e-07
-2.11449767431603e-08
-9.13329003119651e-07
-6.81456897835979e-09
-9.10529635205156e-07
-2.79936791408326e-09
-9.12389592246598e-07
1.85995704088638e-09
-9.13524205258802e-07
1.1346130112079e-09
-9.12322733566951e-07
-1.20147169278092e-09
-9.02034411950117e-07
-1.02883216171856e-08
-8.83943515205272e-07
-1.80908967456655e-08
-8.60894784097718e-07
-2.30487311081057e-08
-8.32374976452265e-07
-2.85198076445438e-08
-7.98041767592336e-07
-3.43332088608388e-08
-7.59138281685739e-07
-3.89034859073172e-08
-7.20312176770372e-07
-3.8826104916861e-08
-6.87091249717854e-07
-3.32209270523635e-08
-6.58219433881282e-07
-2.8871815837981e-08
-6.37418342939285e-07
-2.0801090941956e-08
-6.32046879723236e-07
-5.37146321793767e-09
-6.51849899730501e-07
1.98030200074606e-08
-7.21285810056428e-07
6.94359103248348e-08
-8.74730272705996e-07
1.53444462651423e-07
-1.31189559444223e-06
4.37165321735707e-07
-1.82407465566034e-06
5.12179061219604e-07
-2.42150051513676e-06
5.97425859475448e-07
-3.09442018871969e-06
6.72919673581768e-07
-3.84760148582597e-06
7.5318129710612e-07
-4.66590649805847e-06
8.18305012232664e-07
-5.53934240854241e-06
8.73435910483813e-07
-6.45121558943342e-06
9.1187318089069e-07
-7.38712484856831e-06
9.359092591373e-07
-8.33153826708874e-06
9.44413418520426e-07
-9.27128457451426e-06
9.39746307423612e-07
-1.01944612112824e-05
9.23176636768192e-07
-1.10915706015669e-05
8.9710939028493e-07
-1.19549143334359e-05
8.63343731869521e-07
-1.27787315345189e-05
8.23817201085401e-07
-1.35587175407579e-05
7.79986006241507e-07
-1.42918432755173e-05
7.33125734761671e-07
-1.49759985248658e-05
6.84155249347697e-07
-1.56097915599978e-05
6.33793035132786e-07
-1.61923279652867e-05
5.82536405287224e-07
-1.67230805521601e-05
5.30752586872723e-07
-1.72017779326459e-05
4.78697380482421e-07
-1.76283446250124e-05
4.26566692369023e-07
-1.80028600193541e-05
3.74515394343846e-07
-1.83255431827097e-05
3.22683163356411e-07
-1.85967475602026e-05
2.71204377492408e-07
-1.88169659958144e-05
2.20218435611777e-07
-1.89868394296271e-05
1.69873433812463e-07
-1.91071690233517e-05
1.20329593724396e-07
-1.91789268572387e-05
7.1757833889184e-08
-1.92032614566966e-05
2.43345994584666e-08
-1.9181499495749e-05
-2.17619609472544e-08
-1.91151462901735e-05
-6.63532055752064e-08
-1.90058818636383e-05
-1.0926442653655e-07
-1.88555523077555e-05
-1.5032955588343e-07
-1.86661583261359e-05
-1.89393981616999e-07
-1.84398408494595e-05
-2.26317476673805e-07
-1.81788643675712e-05
-2.60976481888533e-07
-1.78855984792785e-05
-2.93265888291378e-07
-1.75624982008204e-05
-3.23100278459335e-07
-1.72120836530404e-05
-3.50414547781245e-07
-1.68369196655476e-05
-3.75163987489327e-07
-1.64395956961169e-05
-3.97323969430203e-07
-1.60227066916588e-05
-4.16889004455648e-07
-1.55888350128068e-05
-4.33871678848887e-07
-1.51405339984828e-05
-4.48301014324788e-07
-1.4680313178159e-05
-4.60220820324489e-07
-1.42106256985898e-05
-4.69687479570243e-07
-1.37338570981218e-05
-4.76768600468822e-07
-1.32523180012091e-05
-4.81539096909551e-07
-1.276823572418e-05
-4.84082277030522e-07
-1.22837539282945e-05
-4.84481795882455e-07
-1.18009243831951e-05
-4.82829545100863e-07
-1.13217183930994e-05
-4.79205990093636e-07
-1.0848010461582e-05
-4.73707931516946e-07
-1.03816142747405e-05
-4.66396186843106e-07
-9.92423641482351e-06
-4.57377859913559e-07
-9.47757127031889e-06
-4.46665144502658e-07
-9.04316836561507e-06
-4.3440290470538e-07
-8.62267387715682e-06
-4.20494488455467e-07
-8.21747179279513e-06
-4.05202084363001e-07
-7.82928670714363e-06
-3.88185085649027e-07
-7.45926089590357e-06
-3.70025811241245e-07
-7.10943127935663e-06
-3.49829616545196e-07
-6.78045160406015e-06
-3.28979675297856e-07
-6.47513155939476e-06
-3.05320044670097e-07
-6.19298632612784e-06
-2.82145233265876e-07
-5.93856175014007e-06
-2.54424575986512e-07
-5.70866409972513e-06
-2.29897650418493e-07
-5.51171948453348e-06
-1.96944615194285e-07
-5.33810456864378e-06
-1.73614915891099e-07
-5.2051685047143e-06
-1.32936063932555e-07
-5.08735485819686e-06
-1.17813646517335e-07
-5.02043426090139e-06
-6.69205972966509e-08
-4.89491804946828e-06
-1.25516211429647e-07
-4.82001772365891e-06
-7.4900325807905e-08
-4.75586501437776e-06
-6.41527092815098e-08
-4.75469096560514e-06
-1.17404877077915e-09
-4.66482012821763e-06
-8.98708373888042e-08
-4.47406449465843e-06
-1.90755633560898e-07
-4.14441275755023e-06
-3.29651737106758e-07
-3.66892256377692e-06
-4.75490193772208e-07
-3.04661274808102e-06
-6.22309815697764e-07
-2.26881728018322e-06
-7.77795467895623e-07
-1.33460509004488e-06
-9.34212190138389e-07
-2.6297083892252e-07
-1.07163425112366e-06
9.22740190509194e-07
-1.18571102943194e-06
2.18497262954868e-06
-1.2622324390397e-06
3.48948650564798e-06
-1.30451387609899e-06
4.75505865584643e-06
-1.2655721501977e-06
5.91842448068364e-06
-1.16336582483635e-06
6.98842616264771e-06
-1.07000168196434e-06
7.99735290402615e-06
-1.00892674137666e-06
8.97198365542147e-06
-9.74630751395759e-07
9.99006144003134e-06
-1.01807778460877e-06
1.11395002042804e-05
-1.14943876424905e-06
1.27261315600626e-05
-1.58663135578109e-06
1.48439106780739e-05
-2.11777911801223e-06
1.75825858676705e-05
-2.7386751895962e-06
2.11356501958454e-05
-3.55306432817463e-06
2.57388103221402e-05
-4.6031601262944e-06
3.11526258802182e-05
-5.4138155580778e-06
3.51250045306572e-05
-3.97237865043801e-06
3.29756500170381e-05
2.14935451361945e-06
2.53672948695988e-05
7.60835514743876e-06
1.74523587141179e-05
7.91493615548222e-06
1.14132748722723e-05
6.03908384184444e-06
2.03016622279301e-06
2.77123873542707e-05
3.32472513191034e-06
2.5802112884451e-05
2.35854593550444e-06
1.8114774389026e-05
1.03554994616464e-05
7.42317900035843e-06
1.41910000878494e-05
-1.49626723302265e-06
1.17617646104957e-05
-5.55302455130601e-06
5.20167675228105e-06
-5.55731462878711e-06
-1.27932230677812e-07
-4.69171741316721e-06
-1.19627326769666e-06
-3.92549637416261e-06
-1.0322793146571e-06
-3.40894958960607e-06
-6.87989291517825e-07
-3.09042768357034e-06
-4.23831180072891e-07
-2.92185765018435e-06
-2.23165073509546e-07
-2.85650375858741e-06
-8.64988683393666e-08
-2.8355225404832e-06
-2.77957870808805e-08
-2.82957974735678e-06
-8.74216104428136e-09
-2.83632864963924e-06
8.6088593262609e-09
-2.84314714429736e-06
7.9531076703214e-09
-2.84228627783261e-06
-2.06233815965233e-09
-2.81692085494389e-06
-3.56537445031368e-08
-2.76876506449326e-06
-6.62466871971585e-08
-2.70648197095073e-06
-8.53318246469703e-08
-2.62880681811496e-06
-1.06194960479796e-07
-2.53486010174155e-06
-1.28279925231305e-07
-2.42850921765006e-06
-1.45254369997828e-07
-2.32297089504155e-06
-1.44364427524409e-07
-2.2353474355209e-06
-1.20844386573237e-07
-2.16239351008572e-06
-1.01825741268658e-07
-2.12054134051454e-06
-6.26532605145143e-08
-2.12467429480651e-06
-1.23850892466893e-09
-2.22506953756897e-06
1.20198262767234e-07
-2.4698571017446e-06
3.14223474498024e-07
-3.03033705587146e-06
7.13924416776656e-07
-4.37184198521744e-06
1.77867025108164e-06
-5.99772404385532e-06
2.13806111985517e-06
-7.856137666215e-06
2.45583948183406e-06
-9.95641018357525e-06
2.77319219093988e-06
-1.22804304383927e-05
3.077201551925e-06
-1.47975466159103e-05
3.33542118975109e-06
-1.74647518474492e-05
3.54064114202495e-06
-2.02369696560946e-05
3.68409098953503e-06
-2.30664157464066e-05
3.76535534944984e-06
-2.59088878091681e-05
3.78688548128578e-06
-2.87241327595199e-05
3.75499125777671e-06
-3.14783052932095e-05
3.67734917046282e-06
-3.41436904767051e-05
3.56249457378015e-06
-3.66988181489544e-05
3.41847140412702e-06
-3.91275517266691e-05
3.25255077880002e-06
-4.14183045669626e-05
3.07073884653098e-06
-4.35630437505917e-05
2.87786491839321e-06
-4.55564642874341e-05
2.67757578618608e-06
-4.73952484010248e-05
2.47257714872877e-06
-4.90775039636339e-05
2.26479196789759e-06
-5.06023398941506e-05
2.0555885173946e-06
-5.1969578069553e-05
1.84593555588699e-06
-5.31795688147815e-05
1.63655743759723e-06
-5.42330882451155e-05
1.42803482467631e-06
-5.5131292847639e-05
1.22088776587908e-06
-5.58757112825485e-05
1.01562281240313e-06
-5.6468259019798e-05
8.12766172857298e-07
-5.69112657989567e-05
6.12880212966132e-07
-5.72075090174697e-05
4.16572812237351e-07
-5.73602424857927e-05
2.24491302213866e-07
-5.73732099355281e-05
3.73020491934114e-08
-5.72506491305978e-05
-1.4432276587718e-07
-5.69972934826353e-05
-3.19708853533808e-07
-5.6618358381e-05
-4.88199528178369e-07
-5.61195144120208e-05
-6.49173524863677e-07
-5.55068536213068e-05
-8.02054772337738e-07
-5.47868476101252e-05
-9.46323487854706e-07
-5.39662994536245e-05
-1.08152463838775e-06
-5.30522909160864e-05
-1.20727442583336e-06
-5.20521265017046e-05
-1.32326469283695e-06
-5.09732760852471e-05
-1.42926496423916e-06
-4.98233175587029e-05
-1.52512251403194e-06
-4.86098807378905e-05
-1.61076079024667e-06
-4.73405940018044e-05
-1.6861757405407e-06
-4.60230343503581e-05
-1.75143133029455e-06
-4.46646819249446e-05
-1.80665343974122e-06
-4.32728798687589e-05
-1.85202287650775e-06
-4.18547994188729e-05
-1.88776792946239e-06
-4.04174111008734e-05
-1.91415691847325e-06
-3.8967462861744e-05
-1.93148733603782e-06
-3.75114626751367e-05
-1.94008246363779e-06
-3.60556708551607e-05
-1.94027361586323e-06
-3.4606092623487e-05
-1.93240777677792e-06
-3.31684880143331e-05
-1.91681059924896e-06
-3.17483679020984e-05
-1.89382804375485e-06
-3.03510303623826e-05
-1.86373372655517e-06
-2.89815427157076e-05
-1.82686550658815e-06
-2.76448307339283e-05
-1.78337712627943e-06
-2.63455998022157e-05
-1.73363383641413e-06
-2.50885478901214e-05
-1.67754640054919e-06
-2.38781072373213e-05
-1.61564273717065e-06
-2.27189591847081e-05
-1.5473331382664e-06
-2.16153015894474e-05
-1.47368340650732e-06
-2.05721052042295e-05
-1.39302600176629e-06
-1.95932059969112e-05
-1.30787888261779e-06
-1.86843404578933e-05
-1.21418558368421e-06
-1.78484116714433e-05
-1.11807401971708e-06
-1.70927852035992e-05
-1.01005104382819e-06
-1.64177561915825e-05
-9.04926662439712e-07
-1.58343115520579e-05
-7.80389254720405e-07
-1.53354600139879e-05
-6.72466453957124e-07
-1.49415311142241e-05
-5.26864963696717e-07
-1.46227324067762e-05
-4.36612353964941e-07
-1.4421299717894e-05
-2.68353286179428e-07
-1.41303750993009e-05
-4.1644083003017e-07
-1.39651059771001e-05
-2.4016944800961e-07
-1.38229765983682e-05
-2.06282088013389e-07
-1.37629267757372e-05
-6.12238714088679e-08
-1.34492517440959e-05
-4.03545869033604e-07
-1.27997193584541e-05
-8.4028801920287e-07
-1.17376565078816e-05
-1.39171458767592e-06
-1.0232371025976e-05
-1.98077567567785e-06
-8.29017497539728e-06
-2.56450586627754e-06
-5.88785486280891e-06
-3.18011558047765e-06
-3.04089208205485e-06
-3.78117497089181e-06
1.92356547364755e-07
-4.30488288054217e-06
3.73458740080194e-06
-4.7279418828679e-06
7.48339873132791e-06
-5.01104376956651e-06
1.13294173755303e-05
-5.15053252030042e-06
1.50521629032371e-05
-4.98831767790758e-06
1.84795462285154e-05
-4.59074915011664e-06
2.16411574178994e-05
-4.23161287134523e-06
2.46199725526368e-05
-3.98774187611773e-06
2.75166958695482e-05
-3.87135406830474e-06
3.05281628149439e-05
-4.02954473000339e-06
3.39640112167123e-05
-4.58528716601694e-06
3.8617409261611e-05
-6.2400294006796e-06
4.48136642166504e-05
-8.31403407305403e-06
5.28036445444672e-05
-1.07286555174122e-05
6.31303734327654e-05
-1.38797932164708e-05
7.63850321697785e-05
-1.78578188633086e-05
9.18392943960691e-05
-2.0868077784369e-05
0.000103341726199376
-1.54748104537438e-05
9.84738774238118e-05
7.01720328918243e-06
7.80508092552659e-05
2.80314233159844e-05
5.51068841761865e-05
3.08588612345613e-05
3.73587032707666e-05
2.3787264747266e-05
9.13338272050786e-06
4.94209696490481e-05
8.13455108709274e-06
4.5624657429439e-05
6.1548581551119e-06
3.29198931423549e-05
2.30602637487328e-05
1.46917736014988e-05
3.2419119628706e-05
-1.00290901976152e-06
2.74564472317536e-05
-8.72848941925489e-06
1.29272571517738e-05
-9.31417243866937e-06
4.57750788738211e-07
-8.04388677517258e-06
-2.46655893119152e-06
-6.79378603142106e-06
-2.28238005840741e-06
-5.91776803860848e-06
-1.56400728432955e-06
-5.37150584628154e-06
-9.70093372397874e-07
-5.0774906875642e-06
-5.17180232228299e-07
-4.96161305758272e-06
-2.02376498322062e-07
-4.92405171402677e-06
-6.53571306394219e-08
-4.91529060434272e-06
-1.7503270727567e-08
-4.92768157445993e-06
2.09998294443201e-08
-4.94239314089975e-06
2.26646741113484e-08
-4.94441870382179e-06
-3.67752382372213e-11
-4.90791671155434e-06
-7.2155736774362e-08
-4.83390885185004e-06
-1.40254546898353e-07
-4.73689861775696e-06
-1.82342058742275e-07
-4.61536640347006e-06
-2.27727174766499e-07
-4.468188072673e-06
-2.75458256031544e-07
-4.30219221169992e-06
-3.11250230970889e-07
-4.13935342790318e-06
-3.07203211321911e-07
-4.0093297084734e-06
-2.50868106002811e-07
-3.90846583474177e-06
-2.0268961500465e-07
-3.86832828723365e-06
-1.02790808020853e-07
-3.91162463453475e-06
4.20578383774324e-08
-4.13748928578872e-06
3.46062914023451e-07
-4.6184557784327e-06
7.95189967144353e-07
-5.68993168182701e-06
1.78540032016756e-06
-8.02308008651934e-06
4.11181865577832e-06
-1.08803219793618e-05
4.99530301270387e-06
-1.41171255970484e-05
5.69264309951491e-06
-1.77680753404938e-05
6.42414193438557e-06
-2.17798617636272e-05
7.08898797505548e-06
-2.61070714861286e-05
7.66263091224855e-06
-3.06676015579425e-05
8.10117121383781e-06
-3.53871131697566e-05
8.40360260135136e-06
-4.01819664522577e-05
8.56020863195006e-06
-4.49792020280521e-05
8.58412105707578e-06
-4.97112942559629e-05
8.48708348568834e-06
-5.43233184803351e-05
8.28937339482901e-06
-5.87702735318447e-05
8.00944962529565e-06
-6.301819980822e-05
7.66639768049883e-06
-6.70418251146309e-05
7.2761760852156e-06
-7.08235464927103e-05
6.85246022461585e-06
-7.43514809272276e-05
6.4057993529124e-06
-7.76182021798245e-05
5.94429703878395e-06
-8.06194273603675e-05
5.47380232927626e-06
-8.33531412914562e-05
4.9985058989953e-06
-8.58188800258902e-05
4.52132725182846e-06
-8.80172861134655e-05
4.04434164345586e-06
-8.99498081605812e-05
3.56907948470909e-06
-9.16185484884437e-05
3.09677515254154e-06
-9.3026193149467e-05
2.62853242689655e-06
-9.41760061343449e-05
2.16543579728061e-06
-9.50718556453001e-05
1.70861568381082e-06
-9.57182611355813e-05
1.25928570324891e-06
-9.6120446027084e-05
8.18757703733223e-07
-9.62843812829858e-05
3.8842655811225e-07
-9.62168030811534e-05
-3.0276152642792e-08
-9.5925219710995e-05
-4.3590613603248e-07
-9.54179153051164e-05
-8.2701325942117e-07
-9.47039219465976e-05
-1.20219288669421e-06
-9.37929747893757e-05
-1.56012068208214e-06
-9.26954562154673e-05
-1.8995733462496e-06
-9.14223272610606e-05
-2.21945244225487e-06
-8.99850496180333e-05
-2.51880228141456e-06
-8.83955006327628e-05
-2.7968234110988e-06
-8.66658837752438e-05
-3.05288155035753e-06
-8.48086373283738e-05
-3.28651141110266e-06
-8.28363435200558e-05
-3.49741632235288e-06
-8.07616401238357e-05
-3.68546418645665e-06
-7.85971366586576e-05
-3.85067920572098e-06
-7.63553364417113e-05
-3.99323154724245e-06
-7.40485658284805e-05
-4.11342405296412e-06
-7.16889123884268e-05
-4.2116763165642e-06
-6.92881710247399e-05
-4.28850929314325e-06
-6.68578010719298e-05
-4.34452687128033e-06
-6.44088922700473e-05
-4.38039613791817e-06
-6.1952142057407e-05
-4.39683267628711e-06
-5.94978411458501e-05
-4.39457452740793e-06
-5.70558722231831e-05
-4.37437669944159e-06
-5.46357146297236e-05
-4.33696819270486e-06
-5.22464640680835e-05
-4.28307860540176e-06
-4.98968543936144e-05
-4.21334340102449e-06
-4.75952971907523e-05
-4.12842270945544e-06
-4.53499200650401e-05
-4.02875425197925e-06
-4.31686200573042e-05
-3.91493384415287e-06
-4.1059123065774e-05
-3.78704339208169e-06
-3.90290328854815e-05
-3.64573291745782e-06
-3.70859293308118e-05
-3.49043669293579e-06
-3.5237355751113e-05
-3.32225698620095e-06
-3.34910220658489e-05
-3.13935968702775e-06
-3.18545818720478e-05
-2.94431907642345e-06
-3.03361221510957e-05
-2.73264530463162e-06
-2.89433172446843e-05
-2.51087892613317e-06
-2.76848226043996e-05
-2.26854568411104e-06
-2.65674476365803e-05
-2.02230163025246e-06
-2.5600941579857e-05
-1.74689531144283e-06
-2.47875771102355e-05
-1.48583092357865e-06
-2.41415489325347e-05
-1.1728931413988e-06
-2.36433242645321e-05
-9.34837021965571e-07
-2.33209063703166e-05
-5.90771180393655e-07
-2.29231329575502e-05
-8.14214242796113e-07
-2.27178965215476e-05
-4.45405884010761e-07
-2.25199270927268e-05
-4.04251516833984e-07
-2.2358795560628e-05
-2.22355403498039e-07
-2.17691318952893e-05
-9.93209534375039e-07
-2.05886512890434e-05
-2.02076862544523e-06
-1.87153614138174e-05
-3.26500446289852e-06
-1.60948618058057e-05
-4.60127528369221e-06
-1.27423980299802e-05
-5.91696964210023e-06
-8.62201094882917e-06
-7.3005026616243e-06
-3.77525128276505e-06
-8.62793463695643e-06
1.69590576814478e-06
-9.77603993145104e-06
7.6557701489113e-06
-1.06878062636373e-05
1.3939048343117e-05
-1.1294321963771e-05
2.03562156769203e-05
-1.15676998540997e-05
2.65570831356042e-05
-1.11891851365901e-05
3.22740906759402e-05
-1.030775669045e-05
3.75614374084506e-05
-9.51895960385558e-06
4.25506252378037e-05
-8.97692970546934e-06
4.74257731007048e-05
-8.74650193120425e-06
5.24974355451085e-05
-9.1012071744083e-06
5.832061221305e-05
-1.04084638339595e-05
6.61212487859103e-05
-1.4040665973539e-05
7.6457875372388e-05
-1.86506606595295e-05
8.97228501013349e-05
-2.3993630246359e-05
0.000106755890140739
-3.09128332558738e-05
0.000128385958927429
-3.94878876499986e-05
0.000153319595947011
-4.58017148039533e-05
0.000172010827724004
-3.416604223074e-05
0.000165605976219776
1.34220547934086e-05
0.000134232544101425
5.9404855434334e-05
9.69441729286501e-05
6.81472324073348e-05
6.7342852597402e-05
5.33885850785133e-05
2.224543971368e-05
7.39487329320628e-05
1.589013084107e-05
6.79159671866685e-05
1.21876239005054e-05
5.0107296512765e-05
4.08689344226369e-05
2.40669311071081e-05
5.84594850343621e-05
8.47194240732398e-07
5.06761840981323e-05
-1.1365897690904e-05
2.51403490834053e-05
-1.3061906892606e-05
2.15375999043966e-06
-1.1569209266813e-05
-3.95925655698263e-06
-9.8714406823322e-06
-3.98014864288845e-06
-8.63038319587317e-06
-2.80506477078642e-06
-7.84408567682714e-06
-1.75639089144331e-06
-7.41475304676286e-06
-9.46512862290995e-07
-7.24242219089082e-06
-3.74707354191308e-07
-7.18666973807276e-06
-1.21109583459627e-07
-7.17572432701554e-06
-2.84486817849837e-08
-7.19548114974022e-06
4.07566521686135e-08
-7.22072583338552e-06
4.79093577558615e-08
-7.22926985790554e-06
8.507249282793e-09
-7.18646134789857e-06
-1.14964246780706e-07
-7.09220068582084e-06
-2.34515208971734e-07
-6.96656629393051e-06
-3.07976450631432e-07
-6.80836471194035e-06
-3.85928756755062e-07
-6.6165497742294e-06
-4.67273193743285e-07
-6.40118260665362e-06
-5.26617398546884e-07
-6.19330570056855e-06
-5.15080117409953e-07
-6.03590828202284e-06
-4.08265524553188e-07
-5.92734885324063e-06
-3.11249043790793e-07
-5.91504782089919e-06
-1.15091840360095e-07
-6.03428902269564e-06
1.61299040168705e-07
-6.43398135348063e-06
7.45755244804632e-07
-7.22616282989331e-06
1.58737144354961e-06
-8.91190426917549e-06
3.47114175944802e-06
-1.23437209722285e-05
7.54363535882272e-06
-1.65510446352107e-05
9.20262667567538e-06
-2.1294683300324e-05
1.04362817646293e-05
-2.66217332206406e-05
1.17511918547013e-05
-3.24421946615254e-05
1.29094494159424e-05
-3.86890163981812e-05
1.39094526489039e-05
-4.52391419225559e-05
1.46512967382119e-05
-5.19853958632063e-05
1.51498565419954e-05
-5.88076407937143e-05
1.53824535624536e-05
-6.56034205164586e-05
1.53799007798218e-05
-7.2278739758159e-05
1.51624027273866e-05
-7.87585461866012e-05
1.47691798232698e-05
-8.49821155961289e-05
1.4233019034824e-05
-9.09045507961297e-05
1.35888328804942e-05
-9.64930992030491e-05
1.28647244921276e-05
-0.000101725657785805
1.20850188073717e-05
-0.000106587916845183
1.12680584122942e-05
-0.000111071590904432
1.0427971098033e-05
-0.000115172569902519
9.57478132736452e-06
-0.000118889725880707
8.71566187718945e-06
-0.000122223934843399
7.85553621452337e-06
-0.00012517748728399
6.99789408404585e-06
-0.000127753691481056
6.14528368177465e-06
-0.000129956681304884
5.29976497636258e-06
-0.000131791331524479
4.46318264648914e-06
-0.000133263259070673
3.63736334346624e-06
-0.00013437886438258
2.82422099571465e-06
-0.000135145398384059
2.02581970473089e-06
-0.000135571032813682
1.24439213335784e-06
-0.000135664915142498
4.8230888692312e-07
-0.000135437184663826
-2.58006631308806e-07
-0.000134898987474718
-9.74103325155483e-07
-0.000134062480750277
-1.6635199838621e-06
-0.000132940785006673
-2.32388863029168e-06
-0.00013154792332939
-2.95298235935805e-06
-0.000129898743757749
-3.54875291789439e-06
-0.000128008825488516
-4.10937071149738e-06
-0.000125894373127569
-4.63325464235644e-06
-0.000123572102306865
-5.11909423180188e-06
-0.000121059119992809
-5.56586386442474e-06
-0.000118372803098039
-5.97282830586473e-06
-0.000115530678306108
-6.33954111427272e-06
-0.000112550305775425
-6.66583671713903e-06
-0.000109449169415849
-6.95181556528741e-06
-0.000106244575396482
-7.1978255666089e-06
-0.000102953560564063
-7.40443888538218e-06
-9.95928129774757e-05
-7.57242390314495e-06
-9.61786032508051e-05
-7.70271901981855e-06
-9.27267308109233e-05
-7.79639931115799e-06
-8.92524816820056e-05
-7.85464526683645e-06
-8.57706023650049e-05
-7.8787119932902e-06
-8.22952831627813e-05
-7.86989372962988e-06
-7.88401623516585e-05
-7.82949751057179e-06
-7.54183325631587e-05
-7.75879798121415e-06
-7.2042378062448e-05
-7.65903310611118e-06
-6.87243962083913e-05
-7.5313252550773e-06
-6.54760759534759e-05
-7.37674296437358e-06
-6.23087180833121e-05
-7.19611212214163e-06
-5.92333731900961e-05
-6.99027873736883e-06
-5.62608248112444e-05
-6.7595917709164e-06
-5.3401831077411e-05
-6.50472665128259e-06
-5.06669852300757e-05
-6.22528254027644e-06
-4.80671576012904e-05
-5.92208461498444e-06
-4.56130509088307e-05
-5.59346637949494e-06
-4.33160635678965e-05
-5.24130641735089e-06
-4.1187132537576e-05
-4.86157633495507e-06
-3.92384585025307e-05
-4.45955296116981e-06
-3.74809412005264e-05
-4.02606298611119e-06
-3.59272411706312e-05
-3.57600166014164e-06
-3.4587643843242e-05
-3.08649263883111e-06
-3.34721657405711e-05
-2.60130902624882e-06
-3.25918311172635e-05
-2.05322776470558e-06
-3.19346717414325e-05
-1.59199639779315e-06
-3.15184700963325e-05
-1.00697282548984e-06
-3.10687609273629e-05
-1.26392341177277e-06
-3.08837769742366e-05
-6.30389837134872e-07
-3.06417144564341e-05
-6.46314034633896e-07
-3.03382239431903e-05
-5.25845916747381e-07
-2.94057097924449e-05
-1.92572368511444e-06
-2.76148143404407e-05
-3.81166407743941e-06
-2.48415937408654e-05
-6.03822506246932e-06
-2.10163145643683e-05
-8.42655446018029e-06
-1.61629799062312e-05
-1.07703043002347e-05
-1.02382882948367e-05
-1.32251942730197e-05
-3.31798121841564e-06
-1.55482417133834e-05
4.44615722057696e-06
-1.75401783704429e-05
1.28592587602484e-05
-1.91009078033108e-05
2.16939081915399e-05
-2.01289713950642e-05
3.0681266303785e-05
-2.05550579663494e-05
3.93512052482375e-05
-1.98591240810448e-05
4.73562688864624e-05
-1.83128203286734e-05
5.47767877841002e-05
-1.69394785014929e-05
6.17942124516362e-05
-1.59943543729986e-05
6.8675006090416e-05
-1.56272955699859e-05
7.58487763566537e-05
-1.62749774406468e-05
8.41130632353034e-05
-1.86727507126094e-05
9.50908084433689e-05
-2.50184111816033e-05
0.000109555863690371
-3.31157159065287e-05
0.000128030943738459
-4.24687102944459e-05
0.000151592811830421
-5.44747013478371e-05
0.000181213718372272
-6.91087941918551e-05
0.000215008060749032
-7.95960571807107e-05
0.000240638555089079
-5.97965365707858e-05
0.000233971389547168
2.00892203353199e-05
0.000193676363466288
9.96998815152141e-05
0.00014314458690799
0.000118679008965632
0.000101599821263036
9.4933350723468e-05
4.21409482906748e-05
0.000101588234711897
2.73094264952244e-05
9.2925333803079e-05
2.08505248093222e-05
6.99263598805956e-05
6.38679083451206e-05
3.58197322423557e-05
9.25661126726008e-05
4.30492109891545e-06
8.21909952415678e-05
-1.32960785248351e-05
4.27413487071561e-05
-1.67210187107958e-05
5.57870017640477e-06
-1.5241338421847e-05
-5.43893684593252e-06
-1.31546205204682e-05
-6.06686654426534e-06
-1.15511526653782e-05
-4.4085326258799e-06
-1.05153185454403e-05
-2.79222501138362e-06
-9.94175887870877e-06
-1.52007252902604e-06
-9.70739142576087e-06
-6.09074807140366e-07
-9.63210472020061e-06
-1.96396289021065e-07
-9.61999737183315e-06
-4.05560301547857e-08
-9.6493124337963e-06
7.00717141283667e-08
-9.68826451410494e-06
8.68614380650157e-08
-9.7075922612351e-06
2.78349964142645e-08
-9.66413642586993e-06
-1.58420082145469e-07
-9.55633979370205e-06
-3.42311841142177e-07
-9.40959352621614e-06
-4.54722718117551e-07
-9.22362224098928e-06
-5.71900041980444e-07
-8.99785763519547e-06
-6.93037799539399e-07
-8.74593502178051e-06
-7.78540011959814e-07
-8.50834472644973e-06
-7.52670412739581e-07
-8.3422088728649e-06
-5.74401378143633e-07
-8.25045613526152e-06
-4.03001781392025e-07
-8.2973253073153e-06
-6.82226683031913e-08
-8.53567643268694e-06
3.99650165546297e-07
-9.16558920415606e-06
1.37566801627318e-06
-1.03534012862731e-05
2.77518352566998e-06
-1.2766374534009e-05
5.8841150071989e-06
-1.74134115383481e-05
1.21906723631599e-05
-2.30974125075033e-05
1.48866276448386e-05
-2.94819657284919e-05
1.68208349856145e-05
-3.66137447277181e-05
1.88829708539294e-05
-4.43637237589045e-05
2.06594284471292e-05
-5.26360609293304e-05
2.21817898193387e-05
-6.12646822663218e-05
2.32799180751947e-05
-7.01062102693001e-05
2.39913845449743e-05
-7.90036618405174e-05
2.42799051336802e-05
-8.78248472797771e-05
2.42010862190831e-05
-9.64506122791958e-05
2.37881677268019e-05
-0.000104787275709732
2.31058432538089e-05
-0.000112760438721205
2.22061820462908e-05
-0.000120316260464986
2.11446546242742e-05
-0.000127416528082018
1.99649921091687e-05
-0.000134036461449784
1.87049521751338e-05
-0.000140160992977453
1.73925899399633e-05
-0.000145782440306047
1.60494184266225e-05
-0.000150898164895256
1.46905059165782e-05
-0.000155509068398253
1.33265653801804e-05
-0.000159618388260677
1.19648560769432e-05
-0.000163230981410969
1.06104872343294e-05
-0.000166352853918294
9.26715618910077e-06
-0.000168990941479597
7.93785253766344e-06
-0.000171153021145855
6.62526231274448e-06
-0.000172847725317357
5.33206751497027e-06
-0.000174084602019914
4.06109769827494e-06
-0.000174874202454119
2.81542013892837e-06
-0.000175228167229514
1.59835690875588e-06
-0.000175159287773999
4.13429431411878e-07
-0.000174681517717122
-7.35776688194366e-07
-0.000173810003086428
-1.84561795584616e-06
-0.000172561080245471
-2.91244282481831e-06
-0.000170952207723291
-3.9327611524739e-06
-0.000169001890654097
-4.90329942855391e-06
-0.000166729582747301
-5.8210608246916e-06
-0.000164155569424667
-6.68338403413014e-06
-0.000161300837228917
-7.48798683810615e-06
-0.000158186933648183
-8.23299781253379e-06
-0.000154835821430411
-8.91697608220029e-06
-0.000151269731710797
-9.53891802548382e-06
-0.00014751101943101
-1.0098253394072e-05
-0.000143582024210712
-1.05948319374459e-05
-0.000139504939818779
-1.10288999572244e-05
-0.000135301694157709
-1.1401071227681e-05
-0.000130993841791478
-1.1712291251619e-05
-0.000126602471362266
-1.19637943323599e-05
-0.00012214812666764
-1.21570637144428e-05
-0.000117650745764231
-1.22937802145671e-05
-0.000113129614639351
-1.23757763917164e-05
-0.000108603340074115
-1.2404986558529e-05
-0.000104089834940122
-1.23833988636253e-05
-9.96063280207758e-05
-1.23130044299103e-05
-9.51693780041244e-05
-1.21957479978622e-05
-9.07949240561601e-05
-1.20334870540757e-05
-8.64983184725759e-05
-1.18279308386629e-05
-8.22944297786922e-05
-1.15806316582504e-05
-7.81976712755523e-05
-1.12928706252772e-05
-7.42221858006157e-05
-1.09657642122981e-05
-7.0381814939154e-05
-1.05999626323762e-05
-6.66904410266848e-05
-1.01961005637461e-05
-6.31617558962797e-05
-9.75396767068862e-06
-5.98099414758085e-05
-9.27389903545816e-06
-5.66489101479612e-05
-8.75449770734673e-06
-5.36937638984986e-05
-8.19645266681493e-06
-5.09587322285459e-05
-7.59660800490776e-06
-4.84603829412799e-05
-6.95790224843698e-06
-4.62127109190108e-05
-6.2737350083871e-06
-4.42337539366461e-05
-5.55495864249611e-06
-4.25359086796997e-05
-4.78433789576764e-06
-4.11357905686485e-05
-4.00142713729124e-06
-4.00438735372803e-05
-3.14514479607328e-06
-3.92537255146136e-05
-2.38214442046489e-06
-3.87769446827274e-05
-1.48375365737734e-06
-3.83347530021549e-05
-1.70611509233529e-06
-3.82321712677954e-05
-7.32971571492072e-07
-3.79539681779588e-05
-9.24517124464951e-07
-3.74596462126113e-05
-1.02016788209207e-06
-3.61089543031623e-05
-3.27641559456138e-06
-3.36209357964353e-05
-6.29968258416622e-06
-2.98556853184416e-05
-9.80347554045908e-06
-2.4737316823413e-05
-1.35449229552116e-05
-1.82994473408147e-05
-1.72081737828363e-05
-1.04972098360984e-05