/*--------------------------------*- C++ -*----------------------------------*\
| =========                 |                                                 |
| \\      /  F ield         | OpenFOAM: The Open Source CFD Toolbox           |
|  \\    /   O peration     | Version:  3.0.1                                 |
|   \\  /    A nd           | Web:      www.OpenFOAM.org                      |
|    \\/     M anipulation  |                                                 |
\*---------------------------------------------------------------------------*/
FoamFile
{
    version     2.0;
    format      ascii;
    class       volSymmTensorField;
    location    "30000";
    object      R;
}
// * * * * * * * * * * * * * * * * * * * * * * * * * * * * * * * * * * * * * //

dimensions      [0 2 -2 0 0 0 0];

internalField   nonuniform List<symmTensor> 
21000
(
(3.27270665636758e-06 -9.71159039556375e-10 -0 3.27269937659439e-06 -0 3.27270377799089e-06)
(3.06098199808952e-06 -8.71221086412462e-10 -1.54200939034906e-31 3.06101348306265e-06 -1.33905917124792e-33 3.06099722171349e-06)
(2.35641554746239e-06 -5.81199667484607e-10 8.85627995506323e-33 2.35659101324973e-06 -2.43291919520961e-30 2.35650390410756e-06)
(5.69000582402856e-07 -6.82048634393921e-11 1.0659928297809e-27 5.69049539689834e-07 3.46549745651083e-27 5.69025015104272e-07)
(9.77692819639083e-09 -1.7263580985855e-13 2.60603120663377e-29 9.77709881076585e-09 7.46728340319863e-29 9.77701237879892e-09)
(1.79116829505764e-07 5.73038661405995e-12 -6.91672908307608e-29 1.79099896498321e-07 -1.07385917515973e-30 1.79108305247867e-07)
(2.06750950548632e-07 5.55810917714158e-12 2.37183141224948e-27 2.06727027358494e-07 3.8937545121461e-27 2.0673894179598e-07)
(1.41226226728241e-07 2.35112245570911e-12 1.19315071420465e-28 1.41211809978172e-07 -3.32308228241065e-31 1.41218998595009e-07)
(9.18578192011763e-08 9.48520462797855e-13 8.10004085102682e-28 9.1849911847039e-08 1.06729496385463e-27 9.18538566012006e-08)
(6.20640049446227e-08 4.30695619235995e-13 1.1874138349038e-27 6.20594328443442e-08 1.51975218270843e-27 6.2061714892671e-08)
(4.58880302530907e-08 2.4974366866859e-13 -5.5972966316245e-29 4.58850007182762e-08 1.99151909040722e-30 4.58865131281593e-08)
(3.5947481040355e-08 1.82685666581667e-13 -2.31148970762076e-28 3.59452837289759e-08 -2.5183324321084e-28 3.59463810526471e-08)
(3.06851482440087e-08 1.68506787711699e-13 -4.80267659888225e-28 3.06833351755823e-08 -7.27710348757029e-28 3.06842407782938e-08)
(2.74225744208396e-08 1.65006749055432e-13 9.30558960305481e-28 2.7420977403436e-08 1.1938402608416e-27 2.7421775259524e-08)
(2.50262379069155e-08 1.62903512996537e-13 1.41702346643209e-28 2.50247908634353e-08 2.42404660358291e-28 2.50255138744984e-08)
(2.31621691378152e-08 1.60665682678962e-13 6.09417868981475e-28 2.31608336450923e-08 7.16846576493282e-28 2.31615010493883e-08)
(2.17007725177638e-08 1.58450373262232e-13 -6.15305603005499e-28 2.16995201482053e-08 -7.25407708866026e-28 2.17001460606025e-08)
(2.03333072064011e-08 1.53668280296779e-13 -3.32292154282229e-28 2.03321347145122e-08 -4.94787271337746e-28 2.03327208003851e-08)
(1.89406510723998e-08 1.45785928396615e-13 4.22730148115052e-28 1.89395645189754e-08 4.84089739751665e-28 1.89401076788586e-08)
(1.71798005899931e-08 1.34730743956944e-13 -4.49873992563232e-29 1.71788331876918e-08 4.63772668965075e-30 1.71793168592535e-08)
(1.53586924761284e-08 1.26603803981315e-13 4.94804693699729e-29 1.5357850259291e-08 -2.95093588228733e-30 1.53582714122682e-08)
(1.34892854958978e-08 1.19954147488594e-13 -1.51518706376999e-28 1.34885728820804e-08 -2.18404333719434e-28 1.34889293074944e-08)
(1.16295543392389e-08 1.13662957828573e-13 -4.05189317806339e-29 1.16289702717327e-08 4.99515551583591e-30 1.16292624869366e-08)
(9.81696730675978e-09 1.0651998367925e-13 -3.19834349061481e-31 9.81650681213082e-09 -3.68329577793229e-31 9.816737288959e-09)
(8.17894189298e-09 9.91548205668952e-14 -3.3113284296037e-28 8.17859041454622e-09 -5.29524743494894e-28 8.17876641956838e-09)
(6.83797730669702e-09 9.26950164204787e-14 -2.34620675911476e-28 6.83771316282567e-09 -4.11925798765421e-28 6.83784551775131e-09)
(5.88551230619799e-09 8.86816162339892e-14 -5.75395544529708e-29 5.88531058866327e-09 -1.6120056029041e-28 5.88541174435448e-09)
(5.0480037622808e-09 8.25886862900314e-14 -9.60123047796782e-27 5.04785552518486e-09 -2.50469229499529e-26 5.04792991228772e-09)
(4.7190536123383e-09 8.5308408330448e-14 1.28420889500258e-28 4.71893588862974e-09 4.12709760841195e-28 4.71899506102845e-09)
(4.37334823525373e-09 8.51584320331139e-14 6.51935112752773e-27 4.37326174056842e-09 2.75547588117541e-26 4.37330521606249e-09)
(5.1950796887444e-09 1.19103757573341e-13 4.45365950652276e-30 5.19499866584082e-09 -7.32157291176326e-31 5.19503960533628e-09)
(5.85713707963813e-09 1.51393409149927e-13 -2.99801043906637e-27 5.85708006185218e-09 2.99677930797964e-28 5.85710873873852e-09)
(1.14384211931481e-08 4.13911370343802e-13 -5.840940560382e-27 1.14383686341972e-08 3.11591485970939e-26 1.14383962029825e-08)
(2.59410415673482e-08 1.38770326741418e-12 1.24597194596392e-26 2.59409495928463e-08 6.2824487217548e-26 2.5940997154613e-08)
(4.5893765948741e-08 3.24738379796792e-12 2.38388093361533e-26 4.58935808585487e-08 -1.86372723648605e-27 4.58936783677107e-08)
(7.8857710972851e-08 7.26406227493643e-12 -2.36489953585922e-32 7.88573489751708e-08 -5.58557717090785e-30 7.88575373552382e-08)
(1.24187539902202e-07 1.42899867066817e-11 9.17417382453365e-31 1.2418690644445e-07 8.74311944973717e-30 1.24187237942345e-07)
(1.87896033797849e-07 2.64695546292864e-11 -1.27670253840727e-30 1.87894988720312e-07 1.00895354207327e-31 1.87895533707693e-07)
(2.69899746184514e-07 4.53931424734476e-11 -3.70266380915842e-30 2.69898146628805e-07 2.64429915433907e-31 2.69898982730371e-07)
(3.73460514266029e-07 7.36144916674309e-11 -5.70674453924428e-31 3.73458198992869e-07 -1.37117911996682e-29 3.73459408705808e-07)
(4.97669534650637e-07 1.12875993022139e-10 1.02651630830781e-29 4.9766636678494e-07 -5.30766308524066e-29 4.97668024730259e-07)
(6.4274433205856e-07 1.65176198762909e-10 6.04790933386414e-31 6.42740196162153e-07 1.13434456677111e-28 6.42742362621525e-07)
(8.06373931311485e-07 2.31481712382075e-10 -1.11793507898108e-29 8.06368760969843e-07 -8.42818069760037e-29 8.06371473915211e-07)
(9.86515801950152e-07 3.1245204542094e-10 -1.2835014752993e-30 9.8650957557938e-07 -7.03676964831192e-29 9.86512847669028e-07)
(1.17989813881999e-06 4.07755601428825e-10 2.44827245472769e-29 1.17989088776384e-06 -1.4907298302939e-30 1.17989470575997e-06)
(1.38341775050826e-06 5.16588840216204e-10 7.17552228572663e-25 1.38340954956948e-06 -3.72662411924953e-26 1.38341387628572e-06)
(1.59359286069465e-06 6.37429176516237e-10 1.20321637734878e-24 1.59358382427618e-06 -4.23324939305585e-24 1.59358860241084e-06)
(1.80719825656304e-06 7.68395357410407e-10 -4.93056528666963e-25 1.80718852799091e-06 -4.46857404208966e-24 1.80719368414843e-06)
(2.02105834990742e-06 9.07207799074373e-10 -1.06091065540503e-24 2.02104809449369e-06 5.06300772149199e-26 2.02105354365223e-06)
(2.23229567658775e-06 1.05141361521957e-09 2.70689622088484e-29 2.23228507325497e-06 -1.62558440632432e-28 2.23229072242196e-06)
(2.43823465165467e-06 1.19841149734365e-09 1.31399740565523e-29 2.43822388708348e-06 1.67548090079398e-23 2.43822963874935e-06)
(2.63648014653636e-06 1.34558111876302e-09 -1.39024278910274e-24 2.63646940948124e-06 1.83724201218739e-23 2.63647516430886e-06)
(2.82486570244022e-06 1.49031936998558e-09 -2.36323593808931e-24 2.82485517940472e-06 7.51356280302865e-24 2.82486083870116e-06)
(3.00147249193602e-06 1.63011674715002e-09 6.40753876308036e-25 3.00146236312705e-06 7.58464146835873e-24 3.00146783089241e-06)
(3.16460407129542e-06 1.76259390425641e-09 1.68635214496434e-24 3.16459450717044e-06 -5.86427495402928e-26 3.16459969204648e-06)
(3.31279166919615e-06 1.88555347929812e-09 1.17823618837077e-29 3.31278282719398e-06 -3.84482033756438e-31 3.31278764420813e-06)
(3.4447860917694e-06 1.99701494635612e-09 1.80594570659176e-40 3.44477811336707e-06 -5.10740710255361e-42 3.444782485593e-06)
(3.55956240694696e-06 2.0952533106981e-09 -6.975895282256e-41 3.55955541498137e-06 -9.06323172122545e-40 3.55955927501884e-06)
(3.65631988270205e-06 2.17882790383887e-09 -3.13973538542963e-40 3.65631397908014e-06 9.44509260769503e-40 3.65631727036497e-06)
(3.73448601800076e-06 2.24660848662731e-09 1.96565226728905e-40 3.73448128183596e-06 -4.7038320937958e-42 3.73448395970762e-06)
(3.79371785693362e-06 2.29779288857818e-09 6.96370454197602e-30 3.79371434319614e-06 -2.10261446911034e-28 3.79371637570498e-06)
(3.83390331352746e-06 2.3319183416773e-09 -4.71126986174736e-30 3.83390105231367e-06 3.91400882301008e-28 3.83390242069231e-06)
(3.85515795679557e-06 2.3488625305703e-09 -2.27558050211094e-30 3.85515695335069e-06 -1.79909320799696e-28 3.85515765208604e-06)
(3.85781615408256e-06 2.34883382008118e-09 2.27743446269078e-30 3.85781638953372e-06 7.33827319271012e-29 3.85781642604906e-06)
(3.84242112624543e-06 2.33235437523092e-09 2.14100148778634e-24 3.84242255893565e-06 -2.3361501406396e-26 3.84242195295132e-06)
(3.80971541308947e-06 2.30023755322597e-09 1.43348481388987e-24 3.80971798055314e-06 -1.04177213144857e-23 3.80971676309343e-06)
(3.76061730988006e-06 2.2535510328664e-09 -4.04545995279101e-24 3.76062093137847e-06 -3.90875878452427e-25 3.76061914346833e-06)
(3.69620192103361e-06 2.19357884738005e-09 -1.30792674302736e-24 3.6962065004947e-06 9.62816596618571e-24 3.69620419162989e-06)
(3.6176777823989e-06 2.12177789720525e-09 1.93797000362053e-24 3.61768321165086e-06 -8.41444906916283e-27 3.61768043809922e-06)
(3.52636172267576e-06 2.03973199141151e-09 -1.66308782139719e-30 3.52636788483594e-06 3.61799212796206e-33 3.52636470784346e-06)
(3.42365270415488e-06 1.94910524568948e-09 1.64471456823045e-30 3.42365947704059e-06 3.57802172804268e-33 3.42365596101414e-06)
(3.31100535770895e-06 1.85159654963163e-09 -1.13075256159561e-30 3.31101261714463e-06 1.63330569468462e-29 3.31100882787914e-06)
(3.18990393288709e-06 1.74889667102073e-09 -1.97550687182893e-30 3.18991155579422e-06 -1.57495879403251e-29 3.18990755880624e-06)
(3.06183738612339e-06 1.64264936513868e-09 1.4709542344558e-30 3.06184525330149e-06 9.60003573498739e-33 3.06184111232008e-06)
(2.92827607407084e-06 1.53441742461942e-09 -0 2.92828407260005e-06 -0 2.92827984825297e-06)
(2.79065066593045e-06 1.42565448578465e-09 -0 2.79065869114799e-06 -8.28208283291798e-29 2.79065443987184e-06)
(2.65033346466961e-06 1.31768284363198e-09 -0 2.65034142169856e-06 7.86737146690326e-29 2.65033719488426e-06)
(2.50862262588685e-06 1.21167754097062e-09 -0 2.5086304307168e-06 -0 2.50862627409519e-06)
(2.36672895257135e-06 1.10865622179154e-09 -0 2.36673653270293e-06 1.42366206694212e-28 2.3667324859608e-06)
(2.22576624617648e-06 1.00947500963528e-09 -0 2.22577354087449e-06 -1.33919192919672e-28 2.22576963748681e-06)
(2.08674325069269e-06 9.14828536339725e-10 -0 2.08675021087523e-06 -1.26601132882359e-28 2.08674647812504e-06)
(1.95056051000457e-06 8.25255738019414e-10 -0 1.95056709784031e-06 1.18368646392453e-28 1.95056355701416e-06)
(1.81800608264723e-06 7.41146855912116e-10 -0 1.81801227089321e-06 1.11207806791574e-28 1.8180089375926e-06)
(1.68975947749785e-06 6.62756903244521e-10 -0 1.68976524866875e-06 -1.03389214735629e-28 1.68976213325854e-06)
(1.56638781450075e-06 5.9021528297119e-10 9.55356704231371e-25 1.5663931598729e-06 3.11752000346921e-26 1.56639026795449e-06)
(1.44835955901823e-06 5.2354587654442e-10 2.06966340784707e-24 1.44836447759635e-06 -4.19587958585333e-24 1.44836181061092e-06)
(1.33603408149595e-06 4.62673516241179e-10 5.33685334252804e-25 1.33603857887718e-06 -8.02668692383773e-24 1.33603613460367e-06)
(1.22969308454835e-06 4.07452402954824e-10 -1.26581647971683e-24 1.22969717188342e-06 -3.83879044974283e-24 1.2296949451389e-06)
(1.12950841495892e-06 3.57660907671286e-10 -6.88874005253258e-25 1.12951210781311e-06 -2.69747591562645e-26 1.12951009083033e-06)
(1.03561137552942e-06 3.1304557601998e-10 7.30768180423705e-30 1.03561469299062e-06 -2.17076407538155e-28 1.03561287623414e-06)
(9.4800578247733e-07 2.73289752266322e-10 1.68381920764971e-29 9.48008746085166e-07 -3.83385134065758e-29 9.48007118323564e-07)
(8.66721999944569e-07 2.38090513718282e-10 -1.3410082569357e-29 8.66724633058228e-07 1.82518375447153e-28 8.66723182438744e-07)
(7.91603796028019e-07 2.07074422759147e-10 -7.43970136120902e-30 7.91606122824555e-07 -6.78734972043566e-29 7.91604836350446e-07)
(7.22650510591985e-07 1.79943170197294e-10 6.0034868589207e-30 7.22652555784933e-07 3.00388868136355e-31 7.22651420997761e-07)
(6.59524902267208e-07 1.56285912026196e-10 -5.54277184078458e-30 6.59526690117408e-07 -3.01452885113063e-31 6.59525693456035e-07)
(6.02304150236016e-07 1.35863077366134e-10 9.59594521056429e-30 6.02305704689052e-07 -5.14274056652303e-29 6.02304834501424e-07)
(5.50388868835973e-07 1.18220140990639e-10 9.54537645488375e-31 5.50390212452205e-07 9.51576557031062e-29 5.50389455243468e-07)
(5.04123058873283e-07 1.03240767075986e-10 -4.6471130614457e-30 5.04124213424075e-07 -4.38825393084612e-29 5.0412355959966e-07)
(4.62443128799919e-07 9.03830385301418e-11 3.41953437527552e-31 4.62444114095977e-07 4.02348769166198e-29 4.62443550163229e-07)
(4.26311151838744e-07 7.97478773655665e-11 -3.16018332071179e-31 4.2631198656742e-07 -3.70923182282397e-29 4.26311506384428e-07)
(3.93760533430135e-07 7.06027967302551e-11 -3.09263846006943e-30 3.93761234447341e-07 3.42038570177357e-29 3.93760823443566e-07)
(3.67038538955388e-07 6.34229305479131e-11 2.62637758263098e-30 3.67039120840924e-07 -6.4055855683808e-29 3.67038778543826e-07)
(3.42401039952898e-07 5.70846112110968e-11 3.37830887309618e-30 3.42401518198375e-07 6.03057864059181e-29 3.4240122589338e-07)
(3.24581746518678e-07 5.27017271796201e-11 -5.76607633053224e-30 3.24582128405799e-07 -2.89226339973784e-29 3.24581895991657e-07)
(3.06537660452974e-07 4.84233875395199e-11 5.26234409709817e-30 3.065379688348e-07 3.94977216033913e-31 3.06537764982151e-07)
(2.970294356743e-07 4.63257436003824e-11 1.93832565346569e-31 2.97029662665312e-07 2.62806007100149e-29 2.97029516362366e-07)
(2.83713765940738e-07 4.34193884258086e-11 -4.89692316001787e-30 2.83714068050888e-07 -7.49810499747659e-29 2.83713867917246e-07)
(2.68754793793233e-07 4.03854786004659e-11 -7.4864541785899e-30 2.68756868929706e-07 6.14369609215797e-28 2.68755804067239e-07)
(2.61074187669824e-07 3.83781909887227e-11 5.71860819473918e-28 2.6108697670236e-07 9.54359792867334e-29 2.61080563092267e-07)
(2.6243980783978e-07 3.6911092601513e-11 -9.41685826748652e-28 2.62464001004361e-07 5.8095551127202e-27 2.62451924175443e-07)
(2.71066709349845e-07 3.57051543662094e-11 -3.52308911685625e-27 2.71102497563155e-07 1.72837898828127e-26 2.71084634182964e-07)
(2.68559843122374e-07 3.13667399583334e-11 1.74931665025359e-27 2.68603226072986e-07 -5.21289445982456e-27 2.685815916468e-07)
(2.59885182433496e-07 2.57424684481129e-11 5.50729153527632e-27 2.59931905732418e-07 -1.44591618604473e-26 2.59908612026697e-07)
(2.35873751059771e-07 1.85004702320204e-11 -8.37940114039022e-27 2.35916736021542e-07 2.02054112271378e-26 2.35895318076267e-07)
(2.00770400430279e-07 1.15543949479797e-11 -2.70242163000025e-27 2.00804463386063e-07 6.28332504808048e-27 2.00787500843862e-07)
(1.55196117650656e-07 5.82535176506582e-12 3.21310308633669e-28 1.55218021532988e-07 -4.4081986537434e-27 1.55207124120315e-07)
(1.04811537456646e-07 2.09255220907006e-12 6.24326951661593e-27 1.04821708989596e-07 -1.06574644040259e-26 1.04816656705256e-07)
(5.9875947190517e-08 3.06864653174568e-13 3.1497817678497e-28 5.98783364200246e-08 3.29587806760555e-29 5.9877157529763e-08)
(4.57386473620778e-08 -3.3916558506606e-13 1.39614977511246e-27 4.57373871738443e-08 -1.92378628040927e-27 4.57380251089879e-08)
(1.12320472482409e-07 -2.04457301195069e-12 4.53160575835575e-28 1.12309021992608e-07 5.12645461594746e-29 1.12314754861925e-07)
(2.47838070017847e-07 -6.96959211808269e-12 8.74654726248928e-28 2.47793251623493e-07 5.27900709179653e-29 2.47815646493244e-07)
(4.71706368941636e-07 -1.7843734765753e-11 5.92053058459762e-27 4.7158353949803e-07 -7.7964123472174e-27 4.71644871225262e-07)
(7.79783413591288e-07 -3.63950439058879e-11 -3.07543239999676e-26 7.79522098553254e-07 3.64707595819818e-26 7.79652535566357e-07)
(1.16432201667206e-06 -6.23874151433632e-11 -2.26142648396726e-29 1.16385260845819e-06 2.46141616156202e-29 1.16408687378307e-06)
(1.64610082523588e-06 -9.66595654006755e-11 2.56321481987916e-29 1.64533056202325e-06 -3.2508155614272e-29 1.64571489210486e-06)
(2.23214594321293e-06 -1.37967553633126e-10 -6.62073387138814e-26 2.23096523165851e-06 8.26737029419587e-26 2.23155429800114e-06)
(2.99385744605551e-06 -1.89677011637348e-10 -8.22191585057794e-26 2.99208576817004e-06 1.00776141202219e-25 2.99296944888767e-06)
(3.98858269253055e-06 -2.521126564408e-10 9.91145820763302e-26 3.98596239174428e-06 -1.27358846750922e-25 3.9872691682234e-06)
(5.49629778612377e-06 -3.49064620256659e-10 -9.32694241594406e-26 5.4922413447711e-06 9.95789559181959e-26 5.49426353625432e-06)
(7.95930384129531e-06 -5.73076568334415e-10 1.00864092301453e-25 7.95254150409113e-06 -1.30979783504916e-25 7.95591154983076e-06)
(1.17476935268374e-05 -1.11421623170221e-09 1.47571507246338e-26 1.1736053098253e-05 2.99134746087644e-28 1.1741852628402e-05)
(1.75137764181524e-05 -2.4618143041051e-09 -2.31002524801348e-25 1.74933755842632e-05 4.23743207262758e-25 1.75035379344048e-05)
(2.6362543110327e-05 -5.93480744833543e-09 -2.27847845840758e-26 2.63263029676027e-05 1.28033629916982e-28 2.63443528140123e-05)
(3.92794828018051e-05 -1.47802809120032e-08 3.75507525292392e-25 3.92168154590646e-05 -5.3797827329067e-25 3.92480281597164e-05)
(5.44950767604829e-05 -3.38506318834987e-08 -2.56146251849037e-25 5.44017335363856e-05 9.3388971474389e-26 5.44482388436238e-05)
(5.77267114739336e-05 -5.09607166522328e-08 -5.96245043511807e-26 5.76447441691322e-05 9.70693624830033e-28 5.76856369760712e-05)
(3.76875063463585e-05 -3.31486889049931e-08 5.99377834744167e-26 3.76593083872759e-05 8.25011826962804e-26 3.76734133292835e-05)
(1.88690908140142e-05 -1.29172098285363e-08 5.38126601180225e-28 1.88642167136694e-05 3.68413407351561e-26 1.88666590830108e-05)
(7.62388448000762e-06 -3.46102379237476e-09 -7.30901020999873e-28 7.62358446329514e-06 8.16643760727364e-30 7.62373877082424e-06)
(3.88961154361957e-06 -1.27390814594734e-09 9.13316779795626e-32 3.88958298682572e-06 -3.97378043073684e-34 3.88959680917601e-06)
(1.05875930532468e-06 -1.90186942880385e-09 -0 1.05871452208797e-06 -0 1.05873850178383e-06)
(9.5968828972646e-07 -1.628872216072e-09 -4.50832031991755e-32 9.59720739565564e-07 -4.24535968411089e-30 9.59702879777076e-07)
(7.30946917405729e-07 -1.0801239023394e-09 1.36196959670309e-27 7.31208625423265e-07 1.82581334024355e-29 7.31078475475926e-07)
(3.05898925463675e-07 -2.4715694409422e-10 -3.7975459405465e-28 3.06036730274181e-07 4.06489869024048e-28 3.05967732328149e-07)
(9.01355988793663e-08 -1.89055043420034e-11 -1.52108603221274e-27 9.01476193248192e-08 -3.8864384154945e-27 9.01417537090025e-08)
(4.85994932312627e-08 5.90408791984044e-12 -1.11870617835033e-27 4.8577143890418e-08 -2.86972489561929e-27 4.85883981828684e-08)
(3.48752838720637e-08 4.84252639764846e-12 -2.25891378190201e-27 3.48540901622111e-08 -3.70845592447159e-27 3.48647320688486e-08)
(2.23339008348678e-08 2.12818225471166e-12 -1.56790966281503e-28 2.23214656286419e-08 -9.12979492558425e-31 2.23277024026108e-08)
(1.46616148071318e-08 9.10843818061377e-13 -5.17167588697697e-28 1.46545921535674e-08 -9.9719310280025e-28 1.46581113485801e-08)
(1.01312755773246e-08 4.33498914840868e-13 -2.18838598891934e-28 1.01270755567903e-08 -3.45981622341084e-28 1.01291795448192e-08)
(7.61098089911591e-09 2.56288269970277e-13 -6.03648365711063e-29 7.6081365758029e-09 4.90266077048232e-31 7.60956085146879e-09)
(6.03242412321807e-09 1.87682806080266e-13 1.48338302928704e-28 6.03032765683795e-09 2.38630436503218e-28 6.03137721433623e-09)
(5.1820171003137e-09 1.7083604947491e-13 -2.34047257762914e-29 5.18027311629244e-09 -1.32851971116578e-29 5.18114597835185e-09)
(4.67229313563633e-09 1.67044544513022e-13 -2.17550713758649e-28 4.67074153663654e-09 -4.50267454990468e-28 4.67151800552123e-09)
(4.32165564851726e-09 1.66393556315521e-13 9.7318664136702e-28 4.32022922460797e-09 1.19910857242057e-27 4.32094289498381e-09)
(4.07831666879069e-09 1.6689096431182e-13 -6.89768750633108e-28 4.0769729714459e-09 -7.1200410163487e-28 4.07764519155027e-09)
(3.92350012608685e-09 1.68879580456199e-13 4.95127058955432e-28 3.92220526774891e-09 7.52813147261825e-28 3.92285293068792e-09)
(3.80870955043741e-09 1.69992085523453e-13 -1.37993299534766e-28 3.80745248222593e-09 -2.85422191598407e-28 3.80808120135262e-09)
(3.70976575076798e-09 1.69525015576922e-13 -4.13367329373538e-28 3.70854641844778e-09 -5.38550357707276e-28 3.7091561716419e-09)
(3.56905357434444e-09 1.67475604053431e-13 3.36286049623772e-31 3.56789923800038e-09 3.06599949672649e-31 3.56847640979468e-09)
(3.43031283575055e-09 1.70219897578522e-13 5.58228094481567e-28 3.4292290777254e-09 8.91346178728302e-28 3.42977085319329e-09)
(3.29793960387581e-09 1.77600785858962e-13 -4.57621063739272e-28 3.2969318313388e-09 -6.25086483331325e-28 3.29743549859843e-09)
(3.17823312483818e-09 1.89266859954428e-13 7.68673707598997e-28 3.17730517982623e-09 9.67149417244705e-28 3.17776880810115e-09)
(3.07621210571133e-09 2.04728926810153e-13 -1.15689250142959e-28 3.07536756589497e-09 1.22812671526025e-29 3.07578934730882e-09)
(3.01475784725663e-09 2.25642791923945e-13 5.6833375431858e-28 3.01399289129328e-09 1.10503941416592e-27 3.01437473266693e-09)
(3.02267332258322e-09 2.54587441379185e-13 6.60115124890074e-28 3.02197617502611e-09 1.01616078922197e-27 3.02232393283431e-09)
(3.12096686972361e-09 2.94426611608617e-13 -6.56040251079727e-26 3.12032079768662e-09 -1.24686753002705e-25 3.12064290675509e-09)
(3.26950811539931e-09 3.39147501275485e-13 -2.25868647064257e-26 3.26891732006237e-09 -5.78367061246589e-26 3.26921148423042e-09)
(3.54169644319407e-09 4.09827785454232e-13 2.19096487452123e-26 3.54114328832736e-09 -8.31100651384956e-27 3.54141875081729e-09)
(3.89023087132507e-09 4.94299152929566e-13 -3.13435585952392e-26 3.88972907615462e-09 -1.3502506991024e-25 3.88997810252605e-09)
(4.55565927223909e-09 6.81848812955782e-13 -1.72457429465055e-26 4.55517912479543e-09 2.19793582075496e-27 4.55541832899172e-09)
(5.48972319342682e-09 9.49267994449471e-13 2.53799964289036e-26 5.48929827484048e-09 -2.37791572972503e-27 5.48950726122656e-09)
(7.84500769978033e-09 1.84553978988073e-12 3.9327791592072e-26 7.84454937718168e-09 2.39760298868297e-25 7.84477776247279e-09)
(1.26641886966878e-08 4.23168128046997e-12 -5.63836887114938e-26 1.26634415516159e-08 4.02341739799638e-25 1.26638070631307e-08)
(1.92024181195745e-08 8.36898357762603e-12 -8.73114452954397e-26 1.9201138827175e-08 -1.12789288339717e-24 1.92017722810095e-08)
(2.87250195298772e-08 1.60407509111553e-11 -5.01447994510039e-39 2.87228412140952e-08 -1.7244920378133e-24 2.87239137455164e-08)
(4.1437740275525e-08 2.86002663432573e-11 -3.70170785808492e-44 4.143427503747e-08 -4.17728421805855e-29 4.14359874466071e-08)
(5.84344270394585e-08 4.88631616895068e-11 -2.60845607356912e-41 5.84291229245667e-08 7.11356994949961e-29 5.84317389930362e-08)
(7.99233176708949e-08 7.91117501693986e-11 4.90638255874335e-30 7.99156404129972e-08 -3.19590585595376e-31 7.99194305031999e-08)
(1.06539459721984e-07 1.22619369498337e-10 -5.04963747073498e-30 1.06528818142932e-07 -4.21474986483008e-29 1.06534066622454e-07)
(1.38281711677441e-07 1.81854869164033e-10 -1.9223358916309e-30 1.38267625476564e-07 -2.57123953602473e-30 1.38274572327273e-07)
(1.75250435315824e-07 2.59469637129937e-10 3.12224975317458e-30 1.75232505667654e-07 3.97462164292207e-29 1.75241341012548e-07)
(2.17138515334322e-07 3.57049063432663e-10 -1.72235638105076e-29 2.17116529340111e-07 -1.35479618585237e-28 2.17127357665621e-07)
(2.63629217619737e-07 4.75759664787357e-10 1.61910158733364e-29 2.63603119425956e-07 2.65290373620726e-28 2.63615962044935e-07)
(3.14196390915894e-07 6.15712833404736e-10 -0 3.14166315043693e-07 2.00939048484329e-31 3.14181102819065e-07)
(3.68309396987393e-07 7.76433088430526e-10 -1.70864378145299e-24 3.68275628575129e-07 8.89140696283681e-26 3.68292215371254e-07)
(4.2536545286829e-07 9.56643353028628e-10 -2.51328028066669e-24 4.25328419463101e-07 -1.32507456097372e-23 4.25346591074323e-07)
(4.84784841043121e-07 1.15459528614403e-09 1.58503803177396e-24 4.84745074345022e-07 -1.54953202986279e-23 4.84764564422827e-07)
(5.45986508356246e-07 1.36804405004596e-09 2.51158075183359e-24 5.45944625216523e-07 -1.20319226001213e-25 5.45965127037065e-07)
(6.08425083180412e-07 1.59445480340299e-09 2.43755178433537e-24 6.08381758045115e-07 -1.05436038333574e-25 6.08402936766553e-07)
(6.71578326904932e-07 1.83103031000692e-09 4.55396069430135e-24 6.71534275725379e-07 -2.61264592744116e-23 6.71555777405009e-07)
(7.34957886371441e-07 2.07482845389529e-09 2.60153923153689e-24 7.3491384897131e-07 -2.82895601185517e-23 7.34935308657249e-07)
(7.98101379865082e-07 2.32279699395559e-09 1.87341018352168e-24 7.98058107837561e-07 2.54499913684393e-23 7.98079155971717e-07)
(8.60574200118607e-07 2.57184400557099e-09 -2.5339246536132e-24 8.60532444227297e-07 2.78766613569791e-23 8.60552712557876e-07)
(9.21965341725571e-07 2.81887487680079e-09 -4.31141301584909e-24 9.21925841178273e-07 1.50268258926612e-25 9.21944968175456e-07)
(9.8188781881524e-07 3.06084532401205e-09 -3.08709095730796e-29 9.81851289936606e-07 1.00737952318007e-30 9.81868926189013e-07)
(1.03997763283001e-06 3.29480250745082e-09 -4.81802086600158e-40 1.03994475815812e-06 1.3625876957971e-41 1.03996057172705e-06)
(1.09589491236905e-06 3.5179328679621e-09 3.05948276850461e-40 1.09586632950681e-06 -3.45321138497768e-28 1.09588001126453e-06)
(1.14932475991069e-06 3.72760444909551e-09 7.47771372326802e-40 1.14930105079966e-06 3.62118822676941e-28 1.14931231962035e-06)
(1.19997907483526e-06 3.92141022027824e-09 -3.87572845077926e-29 1.19996075542197e-06 8.43151807019614e-31 1.19996936311953e-06)
(1.24759854775087e-06 4.09720745950901e-09 3.58933866721331e-29 1.24758605852755e-06 3.84567085287936e-28 1.24759179438478e-06)
(1.29195573758102e-06 4.2531564624487e-09 5.90790435935052e-29 1.29194943547615e-06 -3.23659702863601e-28 1.29195213008874e-06)
(1.33285756847257e-06 4.38775082882538e-09 -7.78663471235737e-29 1.33285772087415e-06 -7.75684726420905e-29 1.33285724895242e-06)
(1.37016062879799e-06 4.49985823590156e-09 2.22248854006492e-29 1.37016740965028e-06 -1.47033588051849e-28 1.37016369178625e-06)
(1.40371744385848e-06 4.58861500513413e-09 -6.92412409406258e-24 1.40373093142641e-06 7.52383392051475e-26 1.40372393508024e-06)
(1.4334325394222e-06 4.65357743824212e-09 -3.14930352930216e-24 1.43345271650667e-06 -4.8321808233817e-23 1.43344245576729e-06)
(1.45925227263145e-06 4.69466921906033e-09 1.39658334986953e-23 1.45927902930905e-06 -2.59135349394035e-24 1.45926556343718e-06)
(1.48115810307149e-06 4.71216008390308e-09 3.05860684964156e-24 1.48119124144308e-06 4.79993178611476e-23 1.48117467244364e-06)
(1.49916509415534e-06 4.70664332045243e-09 -7.0887607388759e-24 1.49920433500086e-06 3.07708394547184e-26 1.49918480427593e-06)
(1.51331985578757e-06 4.67900653468375e-09 7.36102711628e-40 1.51336484680764e-06 3.13117380538072e-29 1.51334253104902e-06)
(1.5236980017392e-06 4.63039703751265e-09 7.51748595391127e-40 1.52374832704499e-06 3.18249378405815e-29 1.52372343353279e-06)
(1.53040120290052e-06 4.56218328945369e-09 2.70465986278709e-40 1.5304563933853e-06 -7.44765879462076e-29 1.5304291548727e-06)
(1.53355393052984e-06 4.47591392286795e-09 -7.56619934144845e-40 1.53361347473362e-06 4.25924078715568e-29 1.53358414410714e-06)
(1.53330000107006e-06 4.3732758887602e-09 -0 1.53336335617759e-06 -1.29962536371867e-28 1.53333220106953e-06)
(1.52979900200946e-06 4.25605300733278e-09 -2.64785531805562e-29 1.52986560464438e-06 3.89990477842435e-28 1.52983290215797e-06)
(1.52322270925235e-06 4.12608625663315e-09 1.39229678129704e-29 1.52329198576854e-06 -6.5682415891577e-30 1.52325801746541e-06)
(1.51375155882435e-06 3.98523668766307e-09 3.85712887581762e-29 1.51382293485009e-06 9.45357022883962e-30 1.51378798210962e-06)
(1.50157127106543e-06 3.83535193578219e-09 2.66827310279587e-29 1.50164418012832e-06 -2.57753857877321e-28 1.50160851997333e-06)
(1.48686962609329e-06 3.67823655225695e-09 -2.9962766468082e-29 1.48694351712914e-06 1.49000736270885e-29 1.48690741859043e-06)
(1.46983357406675e-06 3.5156272685487e-09 -1.25531855832161e-28 1.46990791786071e-06 -1.7884058259951e-29 1.46987163889438e-06)
(1.45064641902289e-06 3.34917173269388e-09 8.20052390940099e-29 1.4507207133441e-06 4.94597446583328e-28 1.45068449834174e-06)
(1.42948562656612e-06 3.18041363555561e-09 1.21524751030705e-28 1.42955940030175e-06 1.99430092847085e-29 1.42952347817867e-06)
(1.40652039835457e-06 3.01077908917946e-09 -8.17574752861515e-29 1.40659321425668e-06 -4.82238765859538e-28 1.40655779706431e-06)
(1.38191038312503e-06 2.84157198772689e-09 -6.7196646985447e-29 1.38198183995179e-06 -1.64471922598004e-29 1.38194712204518e-06)
(1.35580328834328e-06 2.67396481573629e-09 -7.2790348475772e-24 1.35587302133193e-06 -2.37529570868654e-25 1.35583917891169e-06)
(1.32833502342284e-06 2.50900605246672e-09 -1.59172904610618e-23 1.32840270507649e-06 -4.95124669254945e-23 1.32836989629969e-06)
(1.29962647636091e-06 2.34760857232719e-09 -3.02602917153457e-24 1.29969181471609e-06 -9.59779248047092e-23 1.29966017984272e-06)
(1.26978628943018e-06 2.19057509978311e-09 1.23593573725668e-23 1.26984902860302e-06 -4.63727074462082e-23 1.26981869095766e-06)
(1.23890474295153e-06 2.03856985727812e-09 6.75023949311151e-24 1.23896465880616e-06 2.63432463470168e-25 1.2389357250097e-06)