/*--------------------------------*- C++ -*----------------------------------*\
| =========                 |                                                 |
| \\      /  F ield         | OpenFOAM: The Open Source CFD Toolbox           |
|  \\    /   O peration     | Version:  4.1                                   |
|   \\  /    A nd           | Web:      www.OpenFOAM.org                      |
|    \\/     M anipulation  |                                                 |
\*---------------------------------------------------------------------------*/
FoamFile
{
    version     2.0;
    format      ascii;
    class       volVectorField;
    location    "30000";
    object      U;
}
// * * * * * * * * * * * * * * * * * * * * * * * * * * * * * * * * * * * * * //

dimensions      [0 1 -1 0 0 0 0];

internalField   nonuniform List<vector> 
21000
(
(0.013046614243643 7.73813350317628e-06 0)
(0.0126205526747349 -0.000140155736742952 0)
(0.0110389706819903 -0.000904456960030715 1.82606300691491e-22)
(0.00530207866660511 -0.00105527474958368 -1.63908713481975e-22)
(0.00047767617593376 -0.000206934110371931 -1.48022483930542e-18)
(-0.00274515912645972 0.00134269862957695 0)
(-0.00279635657672479 0.00174318928492946 -3.72694553069396e-22)
(-0.00221151165738913 0.00159240659000723 8.71921038496253e-23)
(-0.00172797497655641 0.0013582245816315 -2.90715220918212e-18)
(-0.0013912712179096 0.00115206013388751 2.98474968009284e-18)
(-0.00118464701609624 0.00100414836624298 -3.78605995114077e-22)
(-0.00104879247297881 0.000888125780648424 6.47028496853026e-18)
(-0.000976693515968988 0.000811125251962292 8.28832583714978e-22)
(-0.000930702406145106 0.000757626438932234 -3.55886784932925e-18)
(-0.000895171881126115 0.000716074928465261 3.7144298898169e-18)
(-0.00086586496349908 0.000682779424131495 0)
(-0.000841610663631465 0.000656146864738313 0)
(-0.000816888435098468 0.000631936086948758 4.14400673542798e-18)
(-0.000789634075981093 0.000607950105655743 -4.27479278860969e-18)
(-0.000754014546597247 0.000575904833732475 -4.31746320833888e-21)
(-0.000717625363965599 0.000537658428585341 -4.47181306301087e-21)
(-0.00067969243511046 0.000493299900559054 -4.73779779995293e-18)
(-0.000640398500756833 0.000443778377044663 -9.6334072544648e-21)
(-0.000599396383289842 0.00038976662693825 5.01114860970536e-21)
(-0.000559438028043051 0.000333873496095396 0)
(-0.000524284045466429 0.00027988203423946 2.78504072267844e-18)
(-0.000498198719372922 0.000232631877384313 2.90216100098083e-18)
(-0.000471412873160281 0.000187416726234367 -1.1666840004624e-20)
(-0.00046494942488654 0.000151142058668744 0)
(-0.000454552650121636 0.000113529890247813 0)
(-0.000503536077567261 8.64059480788627e-05 -1.24542534139685e-20)
(-0.000539146954959876 4.86429932733642e-05 -7.9633291322375e-19)
(-0.000762502652508231 1.51729698192984e-05 4.6460199784184e-16)
(-0.00115574478424307 5.94725431853994e-06 4.720149048018e-16)
(-0.00154051392268297 7.00854789243692e-06 -6.26737937722148e-21)
(-0.00202279788635831 7.41904804618925e-06 6.26690728469354e-21)
(-0.00254083421753975 8.42955425792935e-06 -6.27288702368412e-21)
(-0.00312753961982812 9.13906328879239e-06 -3.70205094873313e-24)
(-0.00375009610870051 1.00287204860603e-05 -4.17889697864807e-24)
(-0.00441273818297151 1.07511336211664e-05 1.25627004531445e-20)
(-0.00509511233522341 1.14715424306815e-05 5.65351852478482e-24)
(-0.00579122569636533 1.2056957789101e-05 -6.2880924493849e-21)
(-0.00648728693621782 1.25657123659972e-05 0)
(-0.00717583923097993 1.29522125348265e-05 6.30985976410194e-21)
(-0.00784790931235929 1.32414524116707e-05 1.00561981904451e-23)
(-0.00849782469317206 1.3422144936364e-05 -1.26486543945039e-20)
(-0.00912030144180296 1.35079793033751e-05 -4.71321740136149e-16)
(-0.00971190363666087 1.34992059699415e-05 -4.76993316099984e-16)
(-0.0102698556163533 1.3404166650685e-05 6.35496500339377e-21)
(-0.0107923856638766 1.32257442726751e-05 6.38644013005106e-21)
(-0.0112781986950775 1.29691289064354e-05 -6.38598253585443e-21)
(-0.0117265073095617 1.26372232144542e-05 3.21136463270389e-21)
(-0.0121367938041683 1.22335869020106e-05 4.79158139975303e-16)
(-0.012508786447437 1.17609795000663e-05 4.84226895589718e-16)
(-0.0128423604005922 1.12225418698585e-05 3.2318953632923e-21)
(-0.0131375239853014 1.06213724735817e-05 0)
(-0.0133943863974828 9.96100943450444e-06 0)
(-0.0136131588672941 9.24529830137504e-06 -4.76388660366655e-32)
(-0.0137941507727005 8.47856358091035e-06 4.78293651818343e-32)
(-0.0139377778202725 7.66554962054525e-06 0)
(-0.0140445685506842 6.8114727909571e-06 0)
(-0.014115174615175 5.92196570978904e-06 -1.66799213336486e-21)
(-0.0141503766099276 5.00299246467242e-06 1.66798828109397e-21)
(-0.0141510860222153 4.06071681174769e-06 -1.68295953535146e-21)
(-0.0141183462088384 3.10149335472666e-06 1.68296436005588e-21)
(-0.0140533320329016 2.13174988469753e-06 -5.06328459915651e-16)
(-0.0139573443593289 1.15786709520871e-06 -2.56305409358472e-17)
(-0.0138318028350164 1.86099745288953e-07 4.86782798942516e-16)
(-0.0136782362401743 -7.7751053671161e-07 -4.2855488241281e-22)
(-0.013498270946447 -1.72721429287882e-06 0)
(-0.0132936178879673 -2.65762501134693e-06 0)
(-0.0130660584031104 -3.56377934225123e-06 -4.36534838865674e-22)
(-0.0128174293661578 -4.44118531422165e-06 4.36550999262006e-22)
(-0.0125496081411908 -5.28585698375128e-06 0)
(-0.012264497518221 -6.09434090865933e-06 0)
(-0.0119640112644574 -6.86372376255791e-06 0)
(-0.0116500602323838 -7.59163926258056e-06 0)
(-0.011324539810437 -8.27625060393512e-06 0)
(-0.010989317898706 -8.91624592705298e-06 0)
(-0.0106462257776217 -9.51078620266166e-06 0)
(-0.0102970474713955 -1.00595261536564e-05 0)
(-0.00994351612771995 -1.05624753317144e-05 0)
(-0.00958730274794207 -1.10201393789606e-05 0)
(-0.00923002226231745 -1.1433160979102e-05 0)
(-0.00887321461146091 -1.18028138054699e-05 0)
(-0.00851837243454673 -1.21300441445715e-05 -5.54222337920156e-16)
(-0.00816689508264845 -1.24169554133788e-05 -1.10871045072679e-15)
(-0.00782016900044764 -1.26642262101896e-05 -5.54194541779339e-16)
(-0.00747944388992744 -1.2875246547597e-05 0)
(-0.00714604619320351 -1.30492593178614e-05 7.50148673023541e-21)
(-0.00682104930236007 -1.31923654667693e-05 -7.50186304950123e-21)
(-0.0065058201807302 -1.32997644784e-05 -7.54870951794265e-21)
(-0.00620117013678771 -1.33839648410818e-05 7.54906458093737e-21)
(-0.00590871895302421 -1.34301293181675e-05 0)
(-0.0056287767793025 -1.34661124280088e-05 0)
(-0.00536366829594759 -1.34532928674468e-05 7.63684048874098e-21)
(-0.00511260212304448 -1.34555471593794e-05 -1.52947683334659e-20)
(-0.00487958750581323 -1.33793984708667e-05 7.6579098123934e-21)
(-0.00466131606439403 -1.33714071670519e-05 -7.6978510400522e-21)
(-0.00446560076605451 -1.32140021868063e-05 7.69808731930772e-21)
(-0.00428345374045797 -1.32396646785136e-05 -7.73636019702007e-21)
(-0.00413096369727551 -1.2954758714059e-05 1.54915973469611e-20)
(-0.00398687340609005 -1.31021881409436e-05 -1.55285100633549e-20)
(-0.00388423078733711 -1.25853559217943e-05 7.77344193570418e-21)
(-0.00377764201504394 -1.3037652182565e-05 0)
(-0.00372929848285655 -1.21379835107602e-05 -7.8261662030571e-21)
(-0.00365421843256754 -1.39478461257199e-05 -1.69016589135386e-23)
(-0.00356595950757218 -5.25176717741825e-05 7.84798987135993e-21)
(-0.00350315982702147 -0.000293081337222641 -1.57826955634516e-20)
(-0.00347293542988925 -0.000552780757317693 -1.99320397495358e-18)
(-0.00346887115139102 -0.0008112093535499 0)
(-0.00336535035272829 -0.00103058151433074 -3.89439511268746e-18)
(-0.00320532475919456 -0.00120642699036403 0)
(-0.00292606136379749 -0.00129828743511286 -3.69439188603829e-18)
(-0.00255008796431906 -0.00129496806770733 -3.55687977601447e-18)
(-0.00205376802445989 -0.00116424362179522 -6.85982562290764e-18)
(-0.00142604283129444 -0.000874006254409894 1.32202425306648e-17)
(-0.000663095108427263 -0.000417094543525245 0)
(0.000235235163279977 0.000199155301979681 6.15478032841886e-18)
(0.00125268867315749 0.000950989409594223 0)
(0.00238141488512811 0.0018133228152866 0)
(0.00358573573593889 0.00273771463254269 -5.58135740302993e-18)
(0.00478782928588925 0.00366488727823322 -5.28747562296384e-21)
(0.00595256514727386 0.00458915200048596 0)
(0.00713428443398021 0.00555960796743832 0)
(0.00832522861022536 0.00658189037280804 0)
(0.00962950887188087 0.00774338341990218 0)
(0.0110692453490662 0.00907969010376112 1.01598196832019e-21)
(0.0129342295969092 0.0108074063173604 -4.14102129304712e-18)
(0.0155950618763367 0.0130394607304634 3.91390077561074e-18)
(0.0191553699845098 0.0156484508844271 0)
(0.0238712542978664 0.0185524014348732 -2.89930219621182e-21)
(0.0301966331369993 0.0215864698176733 9.88168197507944e-23)
(0.0384370697004518 0.0240254305586339 3.15369242659705e-18)
(0.0477196481151213 0.0239655370133163 -2.98052095231287e-18)
(0.0519458826464515 0.0179537906128308 -1.68214637599305e-22)
(0.0435488986937275 0.00861482424585501 6.87142455556615e-19)
(0.0312809921549239 0.00270226448207584 -3.47762226035034e-19)
(0.0199309074295529 0.000277494317508231 8.53440614596216e-23)
(0.0142189458480573 7.34310852885246e-06 0)
(0.0407088750750009 0.000114787713783993 0)
(0.0389701914711852 -0.000339749410739539 0)
(0.0341544717055246 -0.00245436913869025 0)
(0.0177924313227918 -0.00295628736443783 -1.14981701073182e-18)
(0.00322137032877825 -0.00067231058193036 0)
(-0.0069658781630128 0.00377296753300808 0)
(-0.00791036094185609 0.00504476095017171 -4.40752755008892e-18)
(-0.00649062854902383 0.00469275948338823 0)
(-0.00514685161694195 0.00404283672596811 1.31709438634329e-22)
(-0.00417110754446472 0.00344850575429087 -9.20185235769768e-18)
(-0.0035594461755829 0.00301451203312784 5.83553414303673e-22)
(-0.00315619393693172 0.00267174872300348 -4.98698245293088e-18)
(-0.00293830246347734 0.00244120199583873 5.23108087665307e-18)
(-0.00280038764705631 0.00227999182308269 -5.4740684948534e-18)
(-0.00269523171898693 0.00215474063196017 -5.72340988950647e-18)
(-0.00260887059112739 0.00205439239686366 -5.945155459128e-18)
(-0.00253762446344443 0.00197387265518129 6.17044731569246e-18)
(-0.00246587165991995 0.00190084499712227 6.23768165253431e-21)
(-0.00238760399431426 0.00182883958826959 5.31410402393451e-24)
(-0.00228684044339557 0.00173415737116312 -6.64314124095407e-21)
(-0.00218382707369268 0.00162110626259195 -6.87914284776929e-21)
(-0.00207722033841244 0.00148972769447089 7.31493959951243e-18)
(-0.00196750410475286 0.00134271396235881 -7.40292042655315e-21)
(-0.00185387709700329 0.00118215792443658 0)
(-0.00174398099080556 0.00101568026472253 8.21663226406312e-18)
(-0.00164853632358698 0.00085438395304319 4.27740270982909e-18)
(-0.00158024836663865 0.000712198249432953 1.73428815630799e-20)
(-0.00151389972738571 0.000577189166818221 5.19389099886136e-16)
(-0.00150712224976109 0.000467690651570878 -8.70857901550213e-18)
(-0.00149932047370475 0.00035759969736637 -6.02519470349114e-16)
(-0.00166272768705229 0.000276274038399447 1.90875567606558e-20)
(-0.00181984988220041 0.000172991640200078 1.92314819767637e-20)
(-0.00251565550632661 9.39065896862851e-05 -7.23932412053702e-16)
(-0.00369489227071142 7.74619872122435e-05 -7.11736633571399e-16)
(-0.00487492695753594 8.9733406976808e-05 0)
(-0.00632723310841014 0.000101364647471878 0)
(-0.00788791144039458 0.000113122570441179 0)
(-0.00963810732473253 0.000122936678875925 0)
(-0.011488535666076 0.000131023992353038 6.98802673362918e-32)
(-0.0134450660946745 0.00013672839883686 -9.61028572776082e-21)
(-0.015450882439556 0.000140192002030597 9.60548865184248e-21)
(-0.017486376152259 0.000141376042792627 -9.61944861229692e-21)
(-0.0195128822216061 0.000140563792513384 9.61472220094584e-21)
(-0.021508592124003 0.000137993070013596 0)
(-0.0234486658171187 0.000133999536873129 0)
(-0.0253172707964814 0.000128869217888024 0)
(-0.027100138503136 0.000122883158750457 7.26249038205398e-16)
(-0.0287880859275038 0.000116264559912286 7.20098452792225e-16)
(-0.0303739256722526 0.000109200623403359 0)
(-0.0318532182847668 0.000101830157878153 0)
(-0.0332228792323478 9.4258952621366e-05 -6.27141882048616e-16)
(-0.0344811950243051 8.65615206096297e-05 -6.34105702411822e-16)
(-0.0356271913973211 7.87919259486452e-05 -7.35266702591522e-16)
(-0.036660547081076 7.0988247758951e-05 -7.3195741383183e-16)
(-0.0375813329678184 6.3179293298132e-05 -4.92105879590363e-21)
(-0.0383899701029423 5.53879878363887e-05 0)
(-0.039087147434515 4.76348757620982e-05 0)
(-0.0396738251975485 3.99397940570882e-05 7.25116148841116e-32)
(-0.0401512276935906 3.23232816569093e-05 -7.27965416335949e-32)
(-0.0405208664760006 2.48071931346171e-05 0)
(-0.0407845593151109 1.74151534507561e-05 5.05496959039763e-21)
(-0.0409444572361494 1.0172356186442e-05 -7.59337436788559e-21)
(-0.0410030591492496 3.10480098091067e-06 2.53851010261223e-21)
(-0.0409632158309745 -3.76129864003957e-06 0)
(-0.0408281330135795 -1.03996292918469e-05 0)
(-0.0406013696528962 -1.67844866756899e-05 7.71955706434071e-16)
(-0.0402868204511574 -2.28914753588517e-05 3.66925189893815e-17)
(-0.0398886950575512 -2.86979067978425e-05 -7.39971242190175e-16)
(-0.039411490624066 -3.41832329160983e-05 7.61199910625733e-32)
(-0.038859959362003 -3.93293813000311e-05 0)
(-0.0382390722429043 -4.41210155283353e-05 0)
(-0.0375539798475846 -4.85457155353275e-05 -7.72079454072695e-32)
(-0.0368099715278069 -5.25940659212918e-05 0)
(-0.0360124342700037 -5.62596661678267e-05 0)
(-0.0351668117663025 -5.95390792031886e-05 0)
(-0.0342785652892582 -6.24316927540334e-05 2.7085628843249e-21)
(-0.0333531363332465 -6.49395551407951e-05 -2.70915552317756e-21)
(-0.0323959128990555 -6.70671383538084e-05 0)
(-0.031412197653203 -6.88210795111502e-05 -5.48988374585729e-21)
(-0.0304071834063884 -7.02098776672604e-05 5.4912095003457e-21)
(-0.0293859257988003 -7.1243644559795e-05 5.53698444997927e-21)
(-0.0283533330558881 -7.19336141494975e-05 -5.53837010120412e-21)
(-0.0273141384980688 -7.22921430299539e-05 -5.58270472765248e-21)
(-0.0262729144874667 -7.23317968654994e-05 5.58412405322067e-21)
(-0.0252340280864242 -7.20660422802896e-05 0)
(-0.0242017077438899 -7.15071409447339e-05 8.40136388899039e-16)
(-0.0231799354024863 -7.06689088278362e-05 1.69243432636884e-15)
(-0.0221726409261329 -6.95612128693528e-05 8.52625353792429e-16)
(-0.0211834074980928 -6.81984557253309e-05 -3.75746544941596e-23)
(-0.0202159896223773 -6.65847041189644e-05 1.14231752975737e-20)
(-0.0192735183968863 -6.4737608182492e-05 1.14985313635608e-20)
(-0.0183598344498429 -6.2648701967254e-05 -1.15011640589107e-20)
(-0.0174774197065715 -6.03472587737445e-05 0)
(-0.0166307447446286 -5.77975118265781e-05 0)
(-0.0158210630026536 -5.50623512127133e-05 0)
(-0.0150546241315067 -5.20450124533504e-05 0)
(-0.0143299615413566 -4.88946956886916e-05 0)
(-0.013657588704347 -4.53767476249963e-05 0)
(-0.0130297514284815 -4.18494792343096e-05 0)
(-0.0124666078946049 -3.77634662245316e-05 0)
(-0.0119460699251568 -3.39697535318593e-05 0)
(-0.0115093279732434 -2.91885888195058e-05 0)
(-0.0111030639514031 -2.5437844780572e-05 0)
(-0.0108116982879303 -1.96875477856701e-05 0)
(-0.010519859608223 -1.68955332034964e-05 0)
(-0.0103863958566496 -9.9431544049317e-06 0)
(-0.0101933896948566 -1.74698968031564e-05 2.40127183945647e-20)
(-0.0100012664477079 -0.000124191460855347 -2.1649258290047e-19)
(-0.00986511658262063 -0.000816177372146401 0)
(-0.00976965499595933 -0.00156220191212188 0)
(-0.00971411848904934 -0.00230944601804259 -6.07919952153456e-18)
(-0.00936853057309794 -0.00294359511804515 5.96614235791685e-18)
(-0.00884113133032551 -0.00344384824734582 5.82237643550198e-18)
(-0.00796756578971992 -0.00369454487056493 -5.65427857561852e-18)
(-0.00680924510657204 -0.00365887911080822 0)
(-0.00530071270253243 -0.00324423637126044 1.05418287002975e-17)
(-0.00341874819746266 -0.00236036179493838 6.54402706114934e-22)
(-0.00116075525085797 -0.000991461739577371 -9.58234785076457e-21)
(0.00146831802017012 0.00083747605412883 1.84817811660432e-20)
(0.00442292774536942 0.0030562355334755 -1.78638290394503e-20)
(0.00767914173397791 0.00558989811049134 8.64208401922655e-21)
(0.0111351923141043 0.00830036650197299 8.58568157970802e-18)
(0.0145839800692653 0.0110248282130083 -8.31892815202755e-18)
(0.0179393326540454 0.0137506076969683 -3.92048780024618e-21)
(0.0213444177616386 0.0166145510794218 3.78167890650667e-21)
(0.0247917143885228 0.019639537824265 -7.41940462420321e-18)
(0.0285611334152294 0.0230729036872934 -7.08471586195636e-18)
(0.0327434352321569 0.0270281439561815 6.73180571491487e-18)
(0.0381369966576895 0.0321057207690241 0)
(0.0457497834804879 0.0386001523965679 0)
(0.0559068741746048 0.0461419387206741 0)
(0.0693203912074923 0.0544587684743627 -5.38928955108627e-18)
(0.08719608302338 0.063005006273451 -7.94336311109622e-23)
(0.110285672176983 0.0696496440456584 0)
(0.13608834020021 0.0691429279541624 2.27775537969921e-18)
(0.148723956447072 0.0523290983850251 0)
(0.127907825849001 0.0262341781302096 -1.04940019050115e-18)
(0.0946308760304386 0.00907194864018496 3.89494505239887e-22)
(0.0624311210915509 0.00155942373752728 -1.30770483296271e-22)
(0.0451206066520722 0.000316689826512655 0)
(0.0704732480184977 0.000371793752326314 0)
(0.0669381723562254 -0.000434368399343083 1.43387256303241e-22)
(0.058778936533087 -0.00375084383097509 1.45302212945305e-22)
(0.0324655492038899 -0.00475108723277352 4.13034063626267e-24)
(0.00786216955826836 -0.00135108670854645 -2.84704926789815e-22)
(-0.00998751366066949 0.00577044176401105 2.30303651545995e-18)
(-0.0126475813101458 0.00806140228865969 4.55138637864298e-18)
(-0.0107237431064155 0.0076604135199556 1.38784464657155e-22)
(-0.00861202502112423 0.0066749353811563 4.06249606412974e-22)
(-0.0070155860585959 0.00573135150709644 4.75693120665482e-18)
(-0.00599559821977433 0.00502791919414096 0)
(-0.00531957887031979 0.00446830061511905 5.1556357571878e-18)
(-0.00494860523213928 0.00408737279047815 -1.43434850100078e-21)
(-0.00471481596154667 0.00381979832131346 8.88268163464268e-23)
(-0.00453840035579993 0.00361190011901082 -5.90934681710319e-18)
(-0.00439404808212288 0.00344555110559115 6.14681182022244e-18)
(-0.00427539646124718 0.00331177502916152 -6.37606925707324e-18)
(-0.00415718430321742 0.00319073355064082 6.59050569283334e-18)
(-0.0040296539063005 0.00307150408806834 1.33011232823245e-20)
(-0.00386734523885483 0.00291656984790386 -6.86304216662711e-21)
(-0.00370134142224019 0.00273136545950762 -7.27392294373205e-18)
(-0.00353057388368933 0.00251584031217433 7.36648811266537e-21)
(-0.00335595743608233 0.00227424048258674 -7.84648632546731e-18)
(-0.00317654056816049 0.00201021580070689 -7.96331367535579e-21)
(-0.00300462558599467 0.00173617226432416 -8.44810173592629e-18)
(-0.00285781473318287 0.00147022348682313 -4.41398743654728e-18)
(-0.00275756146611997 0.00123429051704431 7.97410087608527e-16)
(-0.00266637833753109 0.00101159067206759 3.14257799406471e-16)
(-0.00267460052797112 0.000828786846449702 3.1162172979149e-17)
(-0.0026951821267952 0.000649161537399591 6.09662776612327e-16)
(-0.00299560912306292 0.000513059702500447 -2.4994866049062e-18)
(-0.00332735680820554 0.00035299683913904 0)
(-0.00453355782345756 0.000248105844913977 1.58287738931191e-19)
(-0.00651528325706893 0.000237766563993067 0)
(-0.00852809833619536 0.000272137853854927 9.58593322430515e-16)
(-0.010970887082145 0.000307471096304239 9.73905578830079e-16)
(-0.0135951879215404 0.000340470201361077 9.88188153314987e-21)
(-0.0165149142280951 0.000368806816730039 -1.97532678231456e-20)
(-0.0195915610964015 0.000390956566194384 -6.60400580356014e-24)
(-0.0228264521736618 0.000406430602048892 1.97456787911976e-20)
(-0.0261296778267648 0.00041493376008757 8.89702037371889e-24)
(-0.0294665241209072 0.000416921599916915 -9.86831376212361e-21)
(-0.0327757755929463 0.000413008904499704 9.88236202449262e-21)
(-0.0360218523214643 0.000404110867828866 -9.87430437748818e-21)
(-0.0391659780421132 0.000391140193990478 0)
(-0.0421833565072691 0.000375005607363986 0)
(-0.0450522784265024 0.0003564956934094 0)
(-0.0477589611018772 0.000336276745949364 0)
(-0.0502929518537605 0.000314873433089729 9.95297427583406e-21)
(-0.0526480484074664 0.0002926864823584 -9.94750494118567e-21)
(-0.0548202006835105 0.000270009292884184 6.47959942057487e-16)
(-0.0568074479434633 0.000247051701026523 6.43933351589135e-16)
(-0.0586089651711757 0.00022396155382518 0)
(-0.0602249038914203 0.000200843899963073 0)
(-0.0616560025936605 0.000177776740140973 0)
(-0.0629035174689052 0.000154822771856906 0)
(-0.0639691038419181 0.000132038005449241 0)
(-0.0648548225743951 0.00010947714507531 5.11099451016654e-21)
(-0.0655631338157507 8.71970254459626e-05 -5.11035986579285e-21)
(-0.0660969343148347 6.52584729728221e-05 0)
(-0.0664595883604783 4.37272204776601e-05 -5.17417167355708e-21)
(-0.0666549681094704 2.2673229786889e-05 2.57578992032916e-21)
(-0.0666874743025214 2.16845961051897e-06 2.59850924907194e-21)
(-0.0665620391436952 -1.77145653820902e-05 0)
(-0.0662841355430403 -3.69030192012847e-05 2.63375575675605e-21)
(-0.0658597697689172 -5.53261051711212e-05 -3.95691021084519e-21)
(-0.0652954523014471 -7.29169572411831e-05 1.32312645240081e-21)
(-0.064598164227031 -8.9613660682337e-05 0)
(-0.0637753134339816 -0.000105360454007662 3.35486950539322e-22)
(-0.0628346833506788 -0.000120108637878098 -3.35555078144782e-22)
(-0.0617843760444402 -0.000133817267572168 -3.38729689278469e-22)
(-0.0606327512614775 -0.000146453619344633 3.38818868642472e-22)
(-0.0593883632252012 -0.000157993400265356 0)
(-0.0580598972546519 -0.000168420746075724 1.37457496643814e-21)
(-0.0566561070563836 -0.000177728037757623 -4.13728674439947e-21)
(-0.0551857549895884 -0.000185915498383433 -1.2062904795334e-23)
(-0.0536575553813797 -0.000192990693427083 -1.19381241395964e-23)
(-0.0520801234655943 -0.000198967871063693 2.78937313265443e-21)
(-0.050461927753246 -0.000203867183754117 0)
(-0.0488112530232042 -0.000207713906201448 0)
(-0.0471361605736731 -0.00021053756400906 -5.67818338243185e-21)
(-0.0454444723427418 -0.000212370865222845 -2.22107579978752e-23)
(-0.0437437327416564 -0.000213249129604799 5.70535211937314e-21)
(-0.0420412273952462 -0.000213208711032823 0)
(-0.0403439237846987 -0.000212287219219664 0)
(-0.0386585639093826 -0.000210520532157987 0)
(-0.0369915192216491 -0.000207945575470433 0)
(-0.0353490612117768 -0.000204593163930677 0)
(-0.0337369590633068 -0.000200498019155592 1.17290607576097e-20)
(-0.0321612021850248 -0.000195679691053777 3.77411033826818e-23)
(-0.0306269001360531 -0.000190172663904491 -1.17766161812645e-20)
(-0.0291401504435211 -0.000183974764761051 -1.18543550868044e-20)
(-0.0277051449063495 -0.000177130336247785 2.37532488396981e-20)
(-0.0263288888393996 -0.000169594567492097 -2.38319873421239e-20)
(-0.0250138509995229 -0.000161451513479815 2.39088469545379e-20)
(-0.0237696217854452 -0.00015256759053809 -1.19754382942442e-20)
(-0.0225948195866088 -0.00014314069319033 -1.20446184534731e-20)
(-0.0215052392617058 -0.000132844055244924 -3.15709216394689e-23)
(-0.0204904869620632 -0.00012216685282076 1.20834538546078e-20)
(-0.0195804090060712 -0.000110343257660426 0)
(-0.0187438481904361 -9.85788244322896e-05 0)
(-0.0180413553887733 -8.50528999804909e-05 0)
(-0.0173961466748786 -7.27797121983998e-05 0)
(-0.0169320673851255 -5.71931027418579e-05 2.45469863800847e-20)
(-0.0164807699801897 -4.64650698309121e-05 -1.21115198770534e-15)
(-0.0162754006102418 -2.88696023601336e-05 -1.19466340783474e-15)
(-0.0159934727709027 -4.28935496236525e-05 2.46632440477036e-20)
(-0.0157534225239038 -0.000203033995036037 2.22895148433266e-19)
(-0.0155802259201182 -0.00129218581795492 -2.48216228385402e-20)
(-0.0154152287159132 -0.00246369388769078 2.47677403337392e-20)
(-0.0152735947675558 -0.00364359510854027 6.23493787590827e-18)
(-0.0146590443719034 -0.00464102203843107 -2.40303122594375e-20)
(-0.0137294811265072 -0.0054123097585569 -5.9977963992932e-18)
(-0.0122371944049047 -0.00577455594187453 1.16534177273553e-17)
(-0.0102768449739882 -0.00566305068537768 2.19939800888461e-20)
(-0.00774325665607231 -0.00493153528788719 -2.12658945765851e-20)
(-0.00460567882260643 -0.00344015344682681 3.1325296919877e-20)
(-0.000868079953798942 -0.00116999088491782 -9.86730420249267e-21)
(0.00345583428616479 0.00183397057869691 9.75786516213854e-18)
(0.00829305420312884 0.00545802449186276 9.44802232087037e-18)
(0.0136021591484354 0.00957946616489906 -9.13508873854229e-18)
(0.0192167398229974 0.0139812079502805 -8.85561026070286e-18)
(0.0248189003640277 0.0184154874451189 1.71492876777142e-17)
(0.0302877487530351 0.022866021422132 4.05419102989087e-21)
(0.0358438878299018 0.0275419078025275 7.98015956734117e-18)
(0.0414923915349041 0.0324907705467738 1.52986285605756e-17)
(0.0476709055619133 0.0380946196303002 7.30503435315116e-18)
(0.0545602245457696 0.0445504754161117 0)
(0.063426858475395 0.0527709681519007 1.58871710310939e-21)
(0.0758320052683824 0.0631795829424987 -7.73376660616111e-22)
(0.0923095879189506 0.075189103273528 -7.21450509062881e-22)
(0.113961768630477 0.0883038826599557 -5.52856800071304e-18)
(0.142583791872342 0.101554389016471 -2.36561449959061e-22)
(0.179161695362303 0.111534712686151 4.92785821741904e-18)
(0.219596091831933 0.110317591605594 2.3259257917417e-18)
(0.240324364546774 0.0845186172048704 2.20888532067333e-18)
(0.210840629460278 0.0443144802857649 -1.07434702270932e-18)
(0.159755966842969 0.0166583503778675 -2.65479624873301e-22)
(0.108311619991962 0.00375474466573388 -6.90146781312077e-20)
(0.079076477837518 0.00103455422030653 0)
(0.102474289042426 0.000819141763581525 0)
(0.0966288662194646 -0.000392978810181946 2.95043602432462e-22)
(0.0850068487495833 -0.00478724191842999 6.02333933074647e-19)
(0.0494327477827439 -0.00639139844657433 0)
(0.0145676886862371 -0.00217752426544527 0)
(-0.0116389402661872 0.00738859431096155 -4.75220136615761e-18)
(-0.0168951260504464 0.0108080316649082 -4.70181819060031e-18)
(-0.0148561065495388 0.0104942178486608 0)
(-0.012097968274786 0.00925175914138741 4.78645872697639e-18)
(-0.00991189224435368 0.00799860315992268 6.00765126787451e-22)
(-0.00848558076912882 0.00704356971254274 -6.21958726573444e-22)
(-0.00753415262397627 0.00627733216531425 -5.32906690982573e-18)
(-0.00700424019002511 0.00574966437793076 -5.59295863393102e-18)
(-0.00667141450692352 0.00537716002107948 5.85422019584516e-18)
(-0.00642272498350346 0.00508758886795055 6.10749253294891e-18)
(-0.00622006349025137 0.00485611682386404 0)
(-0.00605409481879015 0.0046696298736374 -6.43680052126771e-21)
(-0.0058905026809697 0.00450121969480265 1.32822075170781e-20)
(-0.00571591816905901 0.00433548084478504 5.69192602647503e-24)
(-0.00549626808960281 0.00412242576946325 -7.09011517673685e-21)
(-0.00527169385126216 0.00386756778224611 7.50641538846725e-18)
(-0.00504215351527856 0.00357060969008043 -7.78040036385479e-18)
(-0.00480913333344264 0.00323717161640021 8.07088915981436e-18)
(-0.00457182318737292 0.00287257178076137 8.42622508815609e-18)
(-0.00434695396961604 0.00249381505516907 -1.71033008677297e-20)
(-0.00415890500043881 0.00212580731921747 -1.21630660433368e-23)
(-0.00403813098628555 0.00179747925840433 -8.39807386501353e-16)
(-0.00393800050044234 0.00148939928168914 -8.69853726999762e-16)
(-0.00397806861377603 0.00123383113101288 4.99243832581191e-18)
(-0.00405405651202866 0.000988516982354811 1.99905867086188e-20)
(-0.00451661005541327 0.000798770231289407 2.59618292648394e-18)
(-0.00507618464618099 0.000593682856259652 1.30655146337621e-18)
(-0.00683214288052546 0.000482981033524431 1.83386455744293e-19)
(-0.00963533222407844 0.000494085410741761 -2.03467207260809e-20)
(-0.0125174904774236 0.000561822988082689 -1.00257283076832e-15)
(-0.0159706912735351 0.000633701028343 -9.85582725783433e-16)
(-0.0196771238053866 0.000698065851829043 0)
(-0.0237692462976787 0.000753768084568822 -2.03068182299034e-20)
(-0.0280656200425011 0.000795828057005196 2.0280458831726e-20)
(-0.0325574939987243 0.000824632655564044 0)
(-0.0371249909191649 0.000839028389369018 0)
(-0.0417172289786562 0.000840501447035 0)
(-0.0462528261720174 0.000830149973807253 0)
(-0.0506833179318134 0.000810036955289286 0)
(-0.0549580611121788 0.000781952284265253 0)
(-0.0590446994894215 0.000747786597622168 0)
(-0.0629157482326917 0.000709089188456623 0)
(-0.066554101011037 0.000667198678468357 1.01744291927504e-20)
(-0.0699472690547751 0.000623136037335138 -1.01661329649434e-20)
(-0.0730882675546151 0.000577688297782103 0)
(-0.0759729562847416 0.000531419014449953 0)
(-0.0785998499690543 0.000484732442863513 1.02559206936259e-20)
(-0.0809689103202447 0.000437908384440088 3.26033908405699e-23)
(-0.0830813102114164 0.000391145757695141 -1.02783789547033e-20)
(-0.0849389471876983 0.000344590609474195 5.17257025488744e-21)
(-0.0865443506109007 0.000298360899176918 -5.17090146033873e-21)
(-0.0879005400847706 0.000252562085769311 0)
(-0.0890110366508313 0.000207298081923905 0)
(-0.0898798616926435 0.000162677360920746 0)
(-0.0905115878197803 0.000118816565506779 0)
(-0.0909113812171702 7.58417916121835e-05 -5.29285678882626e-21)
(-0.0910850519635733 3.38870619360539e-05 5.29315048098232e-21)
(-0.0910390780495872 -6.91032327335323e-06 0)
(-0.090780603007662 -4.64117192111814e-05 0)
(-0.0903174606128661 -8.44778471677386e-05 -2.69427439630843e-21)
(-0.0896581514875057 -0.000120974171646512 2.69448636662278e-21)
(-0.0888118061572028 -0.000155773971181848 0)
(-0.087788139149563 -0.000188760372580057 0)
(-0.086597390567735 -0.000219828629770766 0)
(-0.0852502583887158 -0.000248887830032761 0)
(-0.0837578239192556 -0.000275862172639458 0)
(-0.0821314724861993 -0.000300691807383846 0)
(-0.0803828117269333 -0.000323333181050268 0)
(-0.0785235900446992 -0.000343758981889288 0)
(-0.0765656164024613 -0.00036195772851533 2.82814519073266e-21)
(-0.0745206842346178 -0.000377932960225636 -5.6715491136024e-21)
(-0.0724004997099409 -0.000391702221654191 2.84348778501412e-21)
(-0.0702166173082307 -0.000403295776681226 0)