/*--------------------------------*- C++ -*----------------------------------*\
| =========                 |                                                 |
| \\      /  F ield         | OpenFOAM: The Open Source CFD Toolbox           |
|  \\    /   O peration     | Version:  4.1                                   |
|   \\  /    A nd           | Web:      www.OpenFOAM.org                      |
|    \\/     M anipulation  |                                                 |
\*---------------------------------------------------------------------------*/
FoamFile
{
    version     2.0;
    format      ascii;
    class       volScalarField;
    location    "30000";
    object      V;
}
// * * * * * * * * * * * * * * * * * * * * * * * * * * * * * * * * * * * * * //

dimensions      [0 3 0 0 0 0 0];

internalField   nonuniform List<scalar> 
21000
(
4.65656542899436e-05
4.65716061823674e-05
4.65123421133619e-05
4.61224571351005e-05
4.5010068130955e-05
4.34752532617057e-05
4.25412077013405e-05
4.23915120423264e-05
4.29160823504967e-05
4.39886199042617e-05
4.5544033590166e-05
4.75507821824393e-05
4.98787520319682e-05
5.21940462918374e-05
5.4434242361826e-05
5.65991644442798e-05
5.86873803604358e-05
6.06982404454294e-05
6.26374982327296e-05
6.46436341871507e-05
6.6864113000194e-05
6.93115166360912e-05
7.19812145316634e-05
7.48677171420147e-05
7.79684756210471e-05
8.11566577299189e-05
8.42038052335931e-05
8.69867432927045e-05
8.93985407906898e-05
9.13229524156507e-05
9.26511118206699e-05
9.32640694441501e-05
9.31848538355022e-05
9.3131308580421e-05
9.3131308579782e-05
9.31313085797828e-05
9.3131308579307e-05
9.31313085802643e-05
9.31313085797756e-05
9.31313085797891e-05
9.31313085790428e-05
9.31313085806982e-05
9.31313085796061e-05
9.3131308579782e-05
9.31313085797877e-05
9.31313085807838e-05
9.31313085787752e-05
9.31313085797819e-05
9.3131308578948e-05
9.31313085807187e-05
9.313130857968e-05
9.31313085797893e-05
9.31313085797832e-05
9.31313085807603e-05
9.31313085788042e-05
9.31313085797804e-05
9.31313085797875e-05
9.3131308580182e-05
9.31313085793817e-05
9.3131308579784e-05
9.31313085797838e-05
9.31313085796125e-05
9.31313085799514e-05
9.31313085797762e-05
9.31313085797887e-05
9.31313085799461e-05
9.31313085796268e-05
9.31313085797815e-05
9.31313085797799e-05
9.31313085797796e-05
9.31313085797796e-05
9.31313085797807e-05
9.31313085797826e-05
9.31313085796251e-05
9.31313085799449e-05
9.3131308579783e-05
9.31313085797826e-05
9.31313085799586e-05
9.31313085796131e-05
9.3131308579775e-05
9.31313085797891e-05
9.31313085793829e-05
9.3131308580182e-05
9.3131308579783e-05
9.3131308579781e-05
9.31313085788132e-05
9.31313085807613e-05
9.31313085797826e-05
9.31313085797822e-05
9.31313085796947e-05
9.31313085807051e-05
9.31313085789482e-05
9.31313085797891e-05
9.31313085787774e-05
9.31313085807935e-05
9.3131308579775e-05
9.31313085797818e-05
9.31313085796139e-05
9.31313085806982e-05
9.31313085790434e-05
9.31313085797822e-05
9.31313085797878e-05
9.31313085802575e-05
9.31313085793074e-05
9.3131308579783e-05
9.31313085797818e-05
9.3131308580413e-05
9.31848538355164e-05
9.32640694441387e-05
9.26511118206865e-05
9.13229524156599e-05
8.93985407907114e-05
8.69867432927201e-05
8.42038052335578e-05
8.11566577298542e-05
7.79684756210002e-05
7.48677171420003e-05
7.19812145316516e-05
6.93115166360896e-05
6.68641130002322e-05
6.46436341871963e-05
6.26374982326829e-05
6.06982404458735e-05
5.86873803589895e-05
5.65991644464333e-05
5.44342423604256e-05
5.21940462940135e-05
4.98787520305606e-05
4.75507821805249e-05
4.55440335925546e-05
4.39886199029015e-05
4.29160823525013e-05
4.23915120408013e-05
4.25412077004624e-05
4.34752532629387e-05
4.50100681306517e-05
4.61224571350806e-05
4.65123421131235e-05
4.65716061827506e-05
4.65656542899428e-05
4.80268749668546e-05
4.80330507417371e-05
4.79726265043261e-05
4.75732830121625e-05
4.64324939681703e-05
4.48588430951314e-05
4.39039280188531e-05
4.37560781687396e-05
4.43018488502137e-05
4.54112213132775e-05
4.70171528221173e-05
4.90871127016383e-05
5.14872531108903e-05
5.38742769764112e-05
5.61840158211655e-05
5.84163003641173e-05
6.05696709940252e-05
6.26434735215185e-05
6.46436367138858e-05
6.67125238171544e-05
6.9001703812173e-05
7.15240613453319e-05
7.42747785715341e-05
7.72481440084405e-05
8.0441454819639e-05
8.37242274454551e-05
8.68615151906885e-05
8.97266252134251e-05
9.22095643919627e-05
9.41907641929821e-05
9.55582462531834e-05
9.6189675275311e-05
9.61087358486144e-05
9.60537499344803e-05
9.60537499338458e-05
9.60537499338299e-05
9.60537499333386e-05
9.60537499343247e-05
9.60537499338294e-05
9.60537499338385e-05
9.60537499330728e-05
9.60537499347675e-05
9.60537499336538e-05
9.60537499338289e-05
9.60537499338363e-05
9.60537499348651e-05
9.60537499327981e-05
9.60537499338358e-05
9.6053749932975e-05
9.60537499347876e-05
9.60537499337303e-05
9.60537499338351e-05
9.60537499338284e-05
9.60537499348372e-05
9.60537499328298e-05
9.60537499338319e-05
9.60537499338375e-05
9.60537499342499e-05
9.6053749933426e-05
9.60537499338244e-05
9.60537499338307e-05
9.60537499336607e-05
9.60537499340032e-05
9.60537499338291e-05
9.60537499338446e-05
9.6053749933989e-05
9.60537499336754e-05
9.60537499338299e-05
9.60537499338369e-05
9.60537499338322e-05
9.60537499338322e-05
9.60537499338358e-05
9.60537499338289e-05
9.6053749933675e-05
9.60537499339902e-05
9.6053749933836e-05
9.60537499338363e-05
9.60537499340033e-05
9.60537499336605e-05
9.60537499338303e-05
9.60537499338365e-05
9.6053749933423e-05
9.60537499342349e-05
9.60537499338358e-05
9.6053749933829e-05
9.60537499328366e-05
9.6053749934829e-05
9.60537499338429e-05
9.60537499338221e-05
9.60537499337453e-05
9.60537499347818e-05
9.60537499329745e-05
9.60537499338362e-05
9.60537499327996e-05
9.60537499348664e-05
9.6053749933829e-05
9.60537499338287e-05
9.60537499336531e-05
9.6053749934773e-05
9.60537499330743e-05
9.60537499338375e-05
9.60537499338384e-05
9.60537499343183e-05
9.60537499333435e-05
9.60537499338305e-05
9.60537499338319e-05
9.60537499344816e-05
9.61087358486313e-05
9.61896752752969e-05
9.55582462531849e-05
9.41907641929847e-05
9.22095643919654e-05
8.97266252134246e-05
8.68615151907087e-05
8.37242274455117e-05
8.04414548196679e-05
7.72481440084159e-05
7.42747785714914e-05
7.15240613453308e-05
6.90017038121228e-05
6.67125238171165e-05
6.46436367138789e-05
6.26434735219542e-05
6.05696709925274e-05
5.84163003663357e-05
5.6184015819693e-05
5.38742769786657e-05
5.14872531095048e-05
4.90871126996553e-05
4.70171528245349e-05
4.54112213118569e-05
4.43018488522622e-05
4.37560781672289e-05
4.39039280179645e-05
4.48588430963538e-05
4.64324939678509e-05
4.75732830121542e-05
4.79726265039636e-05
4.80330507420057e-05
4.80268749668529e-05
4.95336038995915e-05
4.9540012929523e-05
4.947843763004e-05
4.90695205729249e-05
4.78998677761954e-05
4.62867745183645e-05
4.53108858258873e-05
4.51653624238671e-05
4.57333002462376e-05
4.68808603858717e-05
4.85389935832768e-05
5.06741489185619e-05
5.31486506149716e-05
5.56095782869634e-05
5.79909769774735e-05
6.02926849032001e-05
6.25132152983899e-05
6.46519103341393e-05
6.67148791254884e-05
6.88484587013636e-05
7.12084163256496e-05
7.38079427952588e-05
7.66420244354505e-05
7.97047177019421e-05
8.29931561860853e-05
8.63731125443742e-05
8.9602993553944e-05
9.25525012590994e-05
9.51085041489172e-05
9.7148027957958e-05
9.85559050577121e-05
9.92063314026332e-05
9.91236637470357e-05
9.90672077997087e-05
9.90672077990521e-05
9.90672077990464e-05
9.90672077985423e-05
9.90672077995541e-05
9.9067207799046e-05
9.90672077990449e-05
9.90672077982644e-05
9.90672078000063e-05
9.90672077988588e-05
9.90672077990474e-05
9.90672077990458e-05
9.90672078001077e-05
9.90672077979855e-05
9.90672077990539e-05
9.90672077981638e-05
9.90672078000279e-05
9.90672077989465e-05
9.90672077990478e-05
9.90672077990463e-05
9.90672078000788e-05
9.90672077980057e-05
9.90672077990524e-05
9.90672077990395e-05
9.90672077994798e-05
9.906720779862e-05
9.90672077990369e-05
9.90672077990452e-05
9.90672077988665e-05
9.90672077992271e-05
9.9067207799039e-05
9.90672077990533e-05
9.90672077992117e-05
9.90672077988815e-05
9.90672077990461e-05
9.90672077990474e-05
9.90672077990474e-05
9.90672077990456e-05
9.90672077990476e-05
9.9067207799048e-05
9.90672077988802e-05
9.90672077992126e-05
9.90672077990386e-05
9.90672077990626e-05
9.90672077992204e-05
9.90672077988665e-05
9.90672077990462e-05
9.90672077990458e-05
9.90672077986288e-05
9.90672077994651e-05
9.90672077990474e-05
9.9067207799045e-05
9.90672077980196e-05
9.90672078000708e-05
9.90672077990551e-05
9.9067207799032e-05
9.9067207798959e-05
9.90672078000206e-05
9.90672077981635e-05
9.90672077990465e-05
9.90672077979925e-05
9.90672078000988e-05
9.90672077990462e-05
9.90672077990465e-05
9.90672077988603e-05
9.90672078000134e-05
9.90672077982646e-05
9.90672077990542e-05
9.90672077990463e-05
9.90672077995439e-05
9.90672077985423e-05
9.9067207799047e-05
9.90672077990439e-05
9.90672077997095e-05
9.91236637470501e-05
9.92063314026167e-05
9.85559050577107e-05
9.71480279579569e-05
9.51085041489192e-05
9.25525012590992e-05
8.96029935539329e-05
8.63731125443888e-05
8.29931561860808e-05
7.9704717701979e-05
7.66420244354757e-05
7.38079427952924e-05
7.12084163257003e-05
6.88484587013521e-05
6.67148791254796e-05
6.46519103346487e-05
6.25132152968589e-05
6.02926849054744e-05
5.79909769759912e-05
5.56095782892545e-05
5.31486506135024e-05
5.06741489165413e-05
4.85389935857806e-05
4.68808603844234e-05
4.57333002483876e-05
4.51653624223017e-05
4.5310885824967e-05
4.62867745196497e-05
4.78998677758515e-05
4.90695205728211e-05
4.94784376296585e-05
4.95400129298643e-05
4.95336038995921e-05
5.10872361145976e-05
5.10938882160054e-05
5.10311741876698e-05
5.0612576685677e-05
4.94136096266602e-05
4.77604883146504e-05
4.67635542828132e-05
4.66208802744716e-05
4.72120016127608e-05
4.83991570601044e-05
5.01112346322619e-05
5.23136314263308e-05
5.48647485816576e-05
5.74018170166098e-05
5.98570543435207e-05
6.22303073387518e-05
6.45200624422854e-05
6.6725659164505e-05
6.88533922165854e-05
7.10536642520434e-05
7.34865354882874e-05
7.61655060586721e-05
7.90853574727665e-05
8.22399034802107e-05
8.56261039122235e-05
8.91058937292641e-05
9.24308731353013e-05
9.54670507425061e-05
9.80980791617155e-05
0.000100197494722734
0.000101646862197056
0.000102316824695203
0.000102232427475462
0.000102174472229929
0.000102174472229242
0.000102174472229248
0.000102174472228719
0.000102174472229771
0.000102174472229242
0.000102174472229242
0.000102174472228446
0.000102174472230235
0.000102174472229055
0.000102174472229243
0.00010217447222925
0.00010217447223033
0.000102174472228155
0.000102174472229251
0.000102174472228342
0.000102174472230256
0.000102174472229137
0.000102174472229248
0.000102174472229241
0.000102174472230307
0.000102174472228179
0.00010217447222925
0.00010217447222924
0.00010217447222969
0.000102174472228802
0.000102174472229244
0.000102174472229241
0.000102174472229055
0.000102174472229437
0.000102174472229235
0.00010217447222925
0.000102174472229422
0.000102174472229071
0.000102174472229242
0.000102174472229242
0.000102174472229251
0.000102174472229243
0.00010217447222925
0.000102174472229241
0.000102174472229071
0.000102174472229422
0.000102174472229237
0.000102174472229256
0.000102174472229428
0.000102174472229055
0.00010217447222924
0.000102174472229248
0.000102174472228811
0.000102174472229681
0.000102174472229241
0.000102174472229241
0.000102174472228191
0.000102174472230299
0.00010217447222925
0.000102174472229233
0.000102174472229152
0.000102174472230251
0.000102174472228334
0.00010217447222925
0.000102174472228157
0.000102174472230342
0.000102174472229242
0.000102174472229251
0.000102174472229046
0.000102174472230239
0.000102174472228444
0.000102174472229239
0.000102174472229249
0.000102174472229757
0.000102174472228728
0.00010217447222924
0.000102174472229243
0.000102174472229935
0.000102232427475461
0.000102316824695203
0.000101646862197057
0.000100197494722731
9.80980791617122e-05
9.5467050742507e-05
9.24308731352833e-05
8.91058937292491e-05
8.56261039121868e-05
8.22399034801684e-05
7.90853574727723e-05
7.61655060586237e-05
7.34865354882469e-05
7.10536642520449e-05
6.88533922165899e-05
6.67256591649803e-05
6.45200624406613e-05
6.22303073410649e-05
5.98570543420118e-05
5.74018170189903e-05
5.48647485801322e-05
5.23136314242291e-05
5.01112346348036e-05
4.83991570586057e-05
4.72120016149222e-05
4.66208802728077e-05
4.67635542818642e-05
4.77604883159519e-05
4.94136096263133e-05
5.06125766856674e-05
5.10311741873533e-05
5.10938882163557e-05
5.10872361145965e-05
5.26892079508056e-05
5.26961134073818e-05
5.26322765010626e-05
5.22039008615032e-05
5.09751844396558e-05
4.92814733306895e-05
4.82634579269343e-05
4.81242016423929e-05
4.87395752702085e-05
4.99677910318164e-05
5.1735616704163e-05
5.4007364692578e-05
5.66374165560987e-05
5.92529270669507e-05
6.17842451579738e-05
6.42312273136176e-05
6.65923336295201e-05
6.88669020354023e-05
7.10614182238326e-05
7.33304430502458e-05
7.58384249067421e-05
7.8599176133462e-05
8.16072639745528e-05
8.48562482801004e-05
8.83429042896468e-05
9.19252339544325e-05
9.53478690132623e-05
9.8473035181565e-05
0.000101181090647177
0.000103341997557201
0.000104833973714581
0.000105524024271998
0.00010543789953205
0.000105378415902495
0.000105378415901796
0.000105378415901798
0.00010537841590126
0.000105378415902335
0.000105378415901796
0.000105378415901788
0.000105378415900975
0.00010537841590282
0.000105378415901602
0.000105378415901787
0.000105378415901803
0.000105378415902911
0.000105378415900675
0.000105378415901805
0.000105378415900868
0.000105378415902835
0.000105378415901682
0.000105378415901805
0.000105378415901788
0.000105378415902895
0.000105378415900694
0.000105378415901796
0.000105378415901797
0.00010537841590225
0.000105378415901351
0.000105378415901788
0.000105378415901787
0.000105378415901604
0.000105378415901989
0.000105378415901797
0.000105378415901796
0.00010537841590197
0.00010537841590162
0.000105378415901796
0.000105378415901788
0.000105378415901803
0.000105378415901788
0.000105378415901803
0.000105378415901796
0.00010537841590162
0.000105378415901971
0.000105378415901787
0.000105378415901804
0.00010537841590199
0.000105378415901602
0.000105378415901789
0.000105378415901802
0.000105378415901341
0.000105378415902249
0.00010537841590179
0.000105378415901797
0.000105378415900713
0.00010537841590288
0.000105378415901794
0.000105378415901796
0.000105378415901694
0.000105378415902833
0.000105378415900861
0.000105378415901798
0.000105378415900671
0.000105378415902916
0.000105378415901794
0.000105378415901795
0.000105378415901597
0.00010537841590282
0.000105378415900975
0.000105378415901798
0.000105378415901797
0.000105378415902328
0.000105378415901267
0.000105378415901798
0.000105378415901789
0.000105378415902502
0.000105437899532049
0.000105524024271985
0.000104833973714575
0.000103341997557178
0.000101181090647175
9.84730351815648e-05
9.53478690132251e-05
9.19252339543929e-05
8.83429042896858e-05
8.48562482801306e-05
8.16072639745491e-05
7.85991761334557e-05
7.58384249067425e-05
7.33304430502454e-05
7.10614182238263e-05
6.88669020359279e-05
6.65923336279096e-05
6.42312273159864e-05
6.1784245156385e-05
5.92529270694115e-05
5.66374165546137e-05
5.40073646904357e-05
5.17356167067865e-05
4.99677910302506e-05
4.87395752724521e-05
4.81242016407353e-05
4.82634579259467e-05
4.92814733320428e-05
5.09751844393118e-05
5.22039008615462e-05
5.26322765008116e-05
5.26961134077429e-05
5.26892079508074e-05
5.43409981861032e-05
5.43481677734086e-05
5.42832276695543e-05
5.38449864844443e-05
5.25861033990115e-05
5.08512681579371e-05
4.98121746054806e-05
4.96769530467133e-05
5.03177030942869e-05
5.15885041929415e-05
5.34139450421106e-05
5.57572196474239e-05
5.84685922067421e-05
6.11649120895209e-05
6.37746180564747e-05
6.62975775412971e-05
6.8732224842616e-05
7.10778974983658e-05
7.33412777072124e-05
7.5681177723287e-05
7.82665297465843e-05
8.11114608415538e-05
8.42103140472357e-05
8.75563835409535e-05
9.11462484535422e-05
9.48338810695916e-05
9.83567810721366e-05
0.000101573300738455
0.000104360424289112
0.000106584453868534
0.000108120179969238
0.000108830883726948
0.00010874303721649
0.00010868199637286
0.000108681996372138
0.00010868199637213
0.00010868199637159
0.000108681996372685
0.00010868199637214
0.000108681996372129
0.000108681996371296
0.000108681996373185
0.000108681996371937
0.000108681996372144
0.00010868199637214
0.000108681996373288
0.000108681996370982
0.000108681996372146
0.000108681996371177
0.0001086819963732
0.000108681996372027
0.000108681996372139
0.000108681996372131
0.000108681996373265
0.000108681996371016
0.00010868199637214
0.000108681996372131
0.000108681996372607
0.000108681996371677
0.000108681996372132
0.000108681996372135
0.000108681996371945
0.000108681996372337
0.000108681996372136
0.000108681996372131
0.00010868199637232
0.000108681996371957
0.000108681996372139
0.000108681996372139
0.000108681996372137
0.00010868199637213
0.000108681996372139
0.000108681996372147
0.000108681996371956
0.000108681996372314
0.000108681996372138
0.000108681996372137
0.000108681996372338
0.000108681996371943
0.000108681996372135
0.000108681996372142
0.000108681996371681
0.000108681996372598
0.000108681996372131
0.000108681996372139
0.000108681996371021
0.000108681996373257
0.000108681996372133
0.000108681996372148
0.000108681996372029
0.000108681996373201
0.000108681996371186
0.000108681996372129
0.000108681996370989
0.00010868199637328
0.000108681996372148
0.000108681996372135
0.000108681996371944
0.000108681996373187
0.000108681996371291
0.000108681996372137
0.000108681996372129
0.000108681996372692
0.000108681996371583
0.000108681996372137
0.000108681996372138
0.000108681996372851
0.000108743037216499
0.000108830883726946
0.000108120179969256
0.000106584453868541
0.000104360424289115
0.000101573300738452
9.8356781072133e-05
9.4833881069555e-05
9.11462484535102e-05
8.75563835409544e-05
8.42103140472267e-05
8.11114608415593e-05
7.82665297465881e-05
7.56811777233128e-05
7.33412777072534e-05
7.10778974988497e-05
6.8732224840897e-05
6.62975775437636e-05
6.3774618054884e-05
6.11649120920225e-05
5.84685922051217e-05
5.57572196452089e-05
5.34139450448104e-05
5.15885041913853e-05
5.03177030966034e-05
4.96769530450178e-05
4.98121746044631e-05
5.08512681593027e-05
5.25861033986489e-05
5.38449864844151e-05
5.42832276692172e-05
5.43481677737754e-05
5.43409981861016e-05
5.60441291883542e-05
5.60515742004809e-05
5.59855547439959e-05
5.55373720734792e-05
5.42479254120971e-05
5.24714628775206e-05
5.14113374897973e-05
5.12808198407249e-05
5.19481289298906e-05
5.32631031820178e-05
5.51480920453924e-05
5.75651363895599e-05
6.03602840586088e-05
6.31398482444598e-05
6.58303158596772e-05
6.84315666275327e-05
7.09420097029121e-05
7.33609835380155e-05
7.56953725040614e-05
7.81083339418957e-05
8.0773379750328e-05
8.37049538433299e-05
8.68971645976744e-05
9.03430281319507e-05
9.40389152224413e-05
9.78346705498531e-05
0.00010146049661783
0.000104770780725706
0.000107639052646554
0.000109927867732683
0.000111508507918494
0.000112240443400541
0.000112150884925915
0.000112088258377419
0.000112088258376667
0.000112088258376675
0.000112088258376111
0.00011208825837724
0.000112088258376676
0.00011208825837667
0.000112088258375816
0.000112088258377745
0.000112088258376461
0.000112088258376671
0.000112088258376674
0.000112088258377856
0.000112088258375487
0.000112088258376674
0.000112088258375694
0.000112088258377765
0.00011208825837657
0.000112088258376675
0.000112088258376667
0.000112088258377827
0.000112088258375521
0.000112088258376676
0.000112088258376669
0.000112088258377159
0.000112088258376192
0.000112088258376675
0.000112088258376666
0.00011208825837647
0.000112088258376876
0.000112088258376674
0.00011208825837667
0.000112088258376863
0.000112088258376484
0.000112088258376674
0.000112088258376679
0.000112088258376674
0.000112088258376667
0.000112088258376677
0.000112088258376681
0.000112088258376486
0.000112088258376856
0.000112088258376676
0.000112088258376674
0.000112088258376871
0.000112088258376476
0.000112088258376667
0.000112088258376675
0.00011208825837621
0.000112088258377143
0.000112088258376668
0.000112088258376675
0.000112088258375521
0.000112088258377829
0.000112088258376676
0.000112088258376674
0.000112088258376559
0.000112088258377764
0.000112088258375701
0.000112088258376667
0.000112088258375497
0.000112088258377848
0.000112088258376681
0.000112088258376671
0.000112088258376459
0.000112088258377751
0.000112088258375799
0.000112088258376678
0.000112088258376667
0.000112088258377247
0.000112088258376111
0.000112088258376667
0.000112088258376676
0.000112088258377411
0.000112150884925918
0.000112240443400545
0.000111508507918492
0.000109927867732683
0.000107639052646549
0.000104770780725715
0.000101460496617864
9.78346705498812e-05
9.40389152224913e-05
9.03430281319904e-05
8.68971645976796e-05
8.37049538433259e-05
8.07733797503174e-05
7.81083339418565e-05
7.56953725040289e-05
7.33609835385854e-05
7.09420097012444e-05
6.84315666300698e-05
6.58303158580011e-05
6.3139848247046e-05
6.03602840570041e-05
5.75651363872921e-05
5.51480920481447e-05
5.32631031803536e-05
5.19481289322372e-05
5.1280819838956e-05
5.14113374887759e-05
5.24714628789539e-05
5.42479254117231e-05
5.55373720733998e-05
5.59855547435543e-05
5.60515742008265e-05
5.60441291883564e-05
5.78001680920394e-05
5.7807900369036e-05
5.77408299281809e-05
5.72826425770359e-05
5.59622586159602e-05
5.41437008713476e-05
5.30626371741026e-05
5.29375485482401e-05
5.363266111558e-05
5.49934620530193e-05
5.69400000406342e-05
5.94331270168854e-05
6.23145743501219e-05
6.51798870816257e-05
6.79535584830401e-05
7.06354820137519e-05
7.32240424531234e-05
7.5718580599581e-05
7.81261888073518e-05
8.06144635413304e-05
8.33615923787841e-05
8.63823377730608e-05
8.96705624346751e-05
9.32189913898906e-05
9.70237740390391e-05
0.000100930528315507
0.000104661993072239
0.000108068498180564
0.000111020037621626
0.000113375332277967
0.000115002073448535
0.000115755832697517
0.000115664576498694
0.000115600336184835
0.000115600336184066
0.000115600336184074
0.000115600336183492
0.000115600336184648
0.000115600336184073
0.000115600336184065
0.00011560033618318
0.000115600336185171
0.000115600336183855
0.000115600336184068
0.000115600336184075
0.000115600336185279
0.00011560033618286
0.000115600336184068
0.00011560033618307
0.000115600336185187
0.000115600336183956
0.000115600336184075
0.000115600336184067
0.000115600336185255
0.000115600336182884
0.000115600336184074
0.000115600336184064
0.000115600336184564
0.00011560033618358
0.000115600336184076
0.000115600336184055
0.000115600336183863
0.000115600336184281
0.000115600336184078
0.000115600336184067
0.000115600336184262
0.000115600336183883
0.000115600336184072
0.000115600336184064
0.000115600336184074
0.000115600336184066
0.000115600336184073
0.000115600336184076
0.000115600336183876
0.00011560033618427
0.000115600336184068
0.000115600336184076
0.000115600336184273
0.000115600336183865
0.000115600336184065
0.000115600336184083
0.000115600336183586
0.000115600336184547
0.000115600336184065
0.000115600336184076
0.000115600336182885
0.000115600336185254
0.000115600336184076
0.000115600336184068
0.000115600336183965
0.000115600336185189
0.000115600336183062
0.000115600336184068
0.000115600336182861
0.00011560033618528
0.000115600336184074
0.000115600336184076
0.000115600336183848
0.00011560033618518
0.000115600336183173
0.000115600336184081
0.000115600336184066
0.00011560033618465
0.000115600336183503
0.000115600336184057
0.000115600336184065
0.000115600336184832
0.000115664576498698
0.000115755832697502
0.000115002073448537
0.000113375332277968
0.000111020037621631
0.00010806849818054
0.000104661993072216
0.000100930528315488
9.70237740390015e-05
9.32189913898742e-05
8.96705624346788e-05
8.63823377730922e-05
8.33615923788265e-05
8.06144635413176e-05
7.81261888073795e-05
7.57185806001459e-05
7.32240424513209e-05
7.06354820163463e-05
6.79535584813605e-05
6.51798870842675e-05
6.23145743484202e-05
5.94331270145397e-05
5.69400000434986e-05
5.49934620513342e-05
5.36326611179702e-05
5.29375485464224e-05
5.30626371730612e-05
5.4143700872828e-05
5.59622586155949e-05
5.72826425770121e-05
5.77408299278581e-05
5.78079003694616e-05
5.78001680920417e-05
5.96107279974848e-05
5.96187599549672e-05
5.9550671806507e-05
5.90824306992381e-05
5.77307619305884e-05
5.58696807022383e-05
5.47678238631913e-05
5.46489493045608e-05
5.53731751241652e-05
5.67815250683846e-05
5.87916841820456e-05
6.13632785879153e-05
6.43336220199527e-05
6.72872585508676e-05
7.01466459752505e-05
7.2911693048774e-05
7.55807610681324e-05
7.81531947452948e-05
8.06363003745571e-05
8.32022077743528e-05
8.60338760824596e-05
8.91463875007253e-05
9.2533347490926e-05
9.61871762689325e-05
0.000100103788013204
0.000104124473643347
0.000107964340748158
0.000111469568509355
0.000114506532987897
0.000116930032121466
0.000118604083752327
0.000119380272450524
0.000119287337606061
0.000119221455995695
0.000119221455994914
0.000119221455994916
0.00011922145599432
0.000119221455995504
0.000119221455994913
0.000119221455994911
0.000119221455993999
0.000119221455996046
0.000119221455994695
0.000119221455994914
0.000119221455994912
0.000119221455996158
0.000119221455993669
0.000119221455994912
0.000119221455993885
0.000119221455996063
0.000119221455994791
0.000119221455994911
0.000119221455994914
0.000119221455996133
0.000119221455993705
0.000119221455994913
0.000119221455994912
0.000119221455995417
0.000119221455994406
0.000119221455994911
0.000119221455994903
0.000119221455994704
0.00011922145599512
0.00011922145599491
0.000119221455994912
0.00011922145599511
0.000119221455994721
0.000119221455994917
0.000119221455994914
0.000119221455994913
0.000119221455994913
0.000119221455994912
0.000119221455994914
0.000119221455994711
0.000119221455995109
0.000119221455994913
0.000119221455994919
0.000119221455995117
0.000119221455994696
0.000119221455994915
0.000119221455994918
0.000119221455994407
0.000119221455995407
0.000119221455994914
0.000119221455994912
0.000119221455993704
0.000119221455996133
0.000119221455994914
0.000119221455994912
0.000119221455994798
0.000119221455996062
0.000119221455993877
0.000119221455994912
0.000119221455993668
0.000119221455996155
0.000119221455994912
0.000119221455994922
0.000119221455994687
0.000119221455996045
0.000119221455994001
0.000119221455994921
0.000119221455994912
0.000119221455995503
0.00011922145599432
0.000119221455994907
0.000119221455994915
0.000119221455995696
0.000119287337606073
0.000119380272450521
0.000118604083752328
0.000116930032121469
0.000114506532987895
0.000111469568509364
0.000107964340748193
0.000104124473643326
0.000100103788013187
9.61871762689168e-05
9.25333474909228e-05
8.91463875006753e-05
8.60338760824256e-05
8.32022077743862e-05
8.06363003745926e-05
7.81531947458759e-05
7.55807610663042e-05
7.2911693051418e-05
7.01466459734867e-05
6.72872585535948e-05
6.43336220182418e-05
6.13632785855475e-05
5.87916841849722e-05
5.67815250666887e-05
5.5373175126734e-05
5.46489493027725e-05
5.47678238621194e-05
5.58696807037259e-05
5.77307619302002e-05
5.90824306992235e-05
5.95506718061462e-05
5.96187599553699e-05
5.96107279974848e-05
6.14774691947455e-05
6.14858138550742e-05
6.14167465970709e-05
6.09384182586314e-05
5.95551466606912e-05
5.76511580661299e-05
5.65287096531938e-05
5.64168984069903e-05
5.71716163253628e-05
5.86293096229249e-05
6.07052354876955e-05
6.33577562208224e-05
6.64196658304135e-05
6.94642741476464e-05
7.24119616911044e-05
7.5262654194608e-05
7.80146905000515e-05
8.066742094565e-05
8.32283718714749e-05
8.58743006992341e-05
8.87930337074025e-05
9.19999735247159e-05
9.54884561710032e-05
9.92505826098471e-05
0.000103282017074284
0.000107419622174216
0.000111370705707637
0.000114977202202887
0.000118101786978776
0.000120595245857666
0.000122317839754866
0.000123117077329739
0.000123022488191433
0.000122954938390415
0.000122954938389615
0.000122954938389605
0.000122954938389006
0.000122954938390227
0.000122954938389605
0.000122954938389616
0.000122954938388674
0.000122954938390782
0.000122954938389391
0.000122954938389614
0.000122954938389605
0.00012295493839089
0.00012295493838834
0.000122954938389606
0.000122954938388558
0.00012295493839079
0.000122954938389489
0.000122954938389615
0.000122954938389614
0.000122954938390861
0.000122954938388368
0.000122954938389615
0.000122954938389607
0.000122954938390137
0.000122954938389094
0.000122954938389608
0.000122954938389615
0.000122954938389389
0.000122954938389833
0.000122954938389616
0.000122954938389605
0.000122954938389822
0.000122954938389418
0.000122954938389614
0.000122954938389606
0.000122954938389614
0.000122954938389615
0.000122954938389608
0.000122954938389613
0.000122954938389409
0.00012295493838981
0.000122954938389615
0.000122954938389625
0.000122954938389822
0.000122954938389398
0.000122954938389615
0.000122954938389606
0.000122954938389104
0.000122954938390126
0.000122954938389608
0.000122954938389615
0.000122954938388376
0.000122954938390854
0.000122954938389613
0.000122954938389614
0.000122954938389489
0.000122954938390792
0.000122954938388557
0.000122954938389604
0.000122954938388338
0.000122954938390892
0.000122954938389605
0.000122954938389622
0.000122954938389383
0.000122954938390781
0.000122954938388674
0.000122954938389615
0.000122954938389608
0.000122954938390226
0.000122954938389007
0.000122954938389612
0.000122954938389607
0.000122954938390425
0.000123022488191424
0.000123117077329737
0.000122317839754863
0.000120595245857659
0.000118101786978771
0.000114977202202856
0.000111370705707618
0.000107419622174197
0.000103282017074287
9.92505826098468e-05
9.54884561709967e-05
9.19999735247129e-05
8.87930337073944e-05
8.5874300699187e-05
8.32283718714284e-05
8.06674209462514e-05
7.80146904981865e-05
7.52626541973655e-05
7.24119616893078e-05
6.94642741504226e-05
6.64196658286355e-05
6.33577562183417e-05
6.07052354907321e-05
5.86293096211654e-05
5.717161632787e-05
5.6416898405025e-05
5.65287096520675e-05