/*--------------------------------*- C++ -*----------------------------------*\
| =========                 |                                                 |
| \\      /  F ield         | OpenFOAM: The Open Source CFD Toolbox           |
|  \\    /   O peration     | Version:  4.1                                   |
|   \\  /    A nd           | Web:      www.OpenFOAM.org                      |
|    \\/     M anipulation  |                                                 |
\*---------------------------------------------------------------------------*/
FoamFile
{
    version     2.0;
    format      ascii;
    class       volVectorField;
    location    "30000";
    object      wallShearStress;
}
// * * * * * * * * * * * * * * * * * * * * * * * * * * * * * * * * * * * * * //

dimensions      [0 2 -2 0 0 0 0];

internalField   uniform (0 0 0);

boundaryField
{
    bottomWall
    {
        type            calculated;
        value           nonuniform List<vector> 
140
(
(-0.0109864734432233 -1.97802743454923e-05 0)
(-0.0106170238556776 0.000105378237989113 5.73971850987445e-42)
(-0.00929347596880783 0.000704240042984271 -1.53976097217208e-22)
(-0.00450508076263984 0.000823692401612656 2.8647168938086e-22)
(-0.000427963585259344 0.000133607568993599 1.28830972346316e-18)
(0.00247065915770501 -0.00121400297067659 0)
(0.00258318956301166 -0.00158845524139874 1.71004603605157e-22)
(0.00205401239357144 -0.00145692830734651 -8.06858498461917e-23)
(0.00158614425483697 -0.00122991132454579 2.65707343579345e-18)
(0.0012458264984245 -0.00101977067447186 -2.66156802134836e-18)
(0.00102431691769454 -0.000859786762278536 3.26080095433442e-22)
(0.000868143263262282 -0.000729292999073232 -5.33739457282206e-18)
(0.000770252953600702 -0.000635595981510095 -6.51769776598965e-22)
(0.000701114516049751 -0.000567658030424908 2.67451623393622e-18)
(0.000646377804041614 -0.000514602706695442 -2.67652873580549e-18)
(0.000601114038179998 -0.000472050732022954 1.08333559371782e-34)
(0.00056336623935522 -0.000437569292526624 1.41435480290938e-34)
(0.000528624227179635 -0.000407493807228253 -2.67786844432326e-18)
(0.000495200607698868 -0.00037984420013137 2.67687153014216e-18)
(0.000458263729926398 -0.000348652944302475 2.61967431312116e-21)
(0.000421730175035493 -0.000314730735674369 2.62318046535309e-21)
(0.000385412847712239 -0.000278627920971349 2.68112892819611e-18)
(0.000349725239125088 -0.000241415162180051 5.24923165100811e-21)
(0.000314744916163922 -0.0002039278771339 -2.62501788975397e-21)
(0.000282117067900772 -0.000167889384398363 -1.83565197824408e-34)
(0.000253956817866956 -0.000135412017100493 -1.34571840903665e-18)
(0.00023257545198293 -0.000108656232572969 -1.35153858323517e-18)
(0.000213025335943505 -8.50068422433857e-05 5.25930259961078e-21)
(0.000204440153701449 -6.69611769989923e-05 4.2035677985405e-35)
(0.000195682867864886 -4.97769676071494e-05 -7.81506260245883e-33)
(0.000213692145326506 -3.79212891343759e-05 5.27056838410462e-21)
(0.000227419907626879 -2.28531938985755e-05 3.34770442923183e-19)
(0.00032133738317437 -1.15659474696498e-05 -1.95511089009844e-16)
(0.000486775720428968 -8.73658214028687e-06 -1.98763185740293e-16)
(0.000648703959649128 -9.95124740931495e-06 2.6392178060991e-21)
(0.000851797040702685 -1.11064193729506e-05 -2.639019005219e-21)
(0.00106994200881428 -1.23983304264072e-05 2.64153455703011e-21)
(0.00131700828776718 -1.35219242579139e-05 1.55765634409294e-24)
(0.00157917027350254 -1.45483375204532e-05 1.75844847248789e-24)
(0.00185821442574924 -1.53690043115387e-05 -5.29019053386868e-21)
(0.00214556753392356 -1.60057389711916e-05 -2.37966878082846e-24)
(0.00243870707904152 -1.64294037876864e-05 2.64793280952908e-21)
(0.00273182454299774 -1.6662593273963e-05 0)
(0.00302178016136299 -1.67131383437059e-05 -2.657096986753e-21)
(0.00330479488216224 -1.66074533352376e-05 -4.23434131563996e-24)
(0.00357848010606004 -1.63647996554597e-05 5.32637763255531e-21)
(0.0038406106189645 -1.60083820516822e-05 1.98468127381659e-16)
(0.00408973959017782 -1.55557450125273e-05 2.00856840490925e-16)
(0.00432469814531569 -1.50231194331327e-05 -2.67609048625904e-21)
(0.0045447402369548 -1.4422397124292e-05 -2.68934541856388e-21)
(0.00474932049749961 -1.37633219487034e-05 2.68915272301452e-21)
(0.00493810736508188 -1.30529176062847e-05 -1.35231402875633e-21)
(0.00511088283341105 -1.22967607964384e-05 -2.01770791620041e-16)
(0.00526753247916458 -1.14991268506766e-05 -2.0390575871124e-16)
(0.00540800372848804 -1.06637224563407e-05 -1.36096040384419e-21)
(0.00553230008154951 -9.79391119162781e-06 0)
(0.00564046751360189 -8.8930875211654e-06 0)
(0.00573259496669622 -7.96479960347346e-06 2.00607128365449e-32)
(0.00580881271231925 -7.01289431644714e-06 -2.01409820270462e-32)
(0.00586929579761773 -6.0415561700322e-06 -0)
(0.00591426678486599 -5.05535114626466e-06 -2.80808834409349e-38)
(0.00594400008036861 -4.05919072571017e-06 7.02398868097376e-22)
(0.00595882439214239 -3.05822648674285e-06 -7.02397245883936e-22)
(0.00595912354865883 -2.05774240895179e-06 7.08702491097208e-22)
(0.00594533691072261 -1.06313389666288e-06 -7.08704522808007e-22)
(0.00591795921967657 -7.97967334030716e-08 2.13218700175222e-16)
(0.00587753827902679 8.86988030291228e-07 1.07932314416231e-17)
(0.00582467191378017 1.8321270965999e-06 -2.0498865841943e-16)
(0.00576000390733924 2.75079386754173e-06 1.80466957170496e-22)
(0.00568421914098191 3.63849627833734e-06 0)
(0.00559803810709811 4.49113468987468e-06 -0)
(0.00550221094683883 5.30504846128518e-06 1.8382773901873e-22)
(0.00539751118870812 6.07704918271204e-06 -1.83834544254628e-22)
(0.00528472941233222 6.80444148682081e-06 -0)
(0.00516466690469911 7.48503376799139e-06 0)
(0.00503812957550784 8.11713432601627e-06 0)
(0.00490592210694078 8.69954207658239e-06 0)
(0.0047688426689495 9.23152373007011e-06 0)
(0.0046276778553954 9.71278753028784e-06 0)
(0.00448319883906652 1.01434443643031e-05 0)
(0.00433615689165654 1.052398127091e-05 0)
(0.00418728186048865 1.0855187832653e-05 0)
(0.00403727742043579 1.11381682171505e-05 0)
(0.00388682363591484 1.13741926517644e-05 0)
(0.00373656898794128 1.15648247992992e-05 -0)
(0.00358714204409606 1.17115714687601e-05 2.33391242982568e-16)
(0.0034391320763834 1.18163505150342e-05 4.66894330659716e-16)
(0.00329312293802757 1.18805813076701e-05 2.33379443801134e-16)
(0.00314964087078303 1.19065835850578e-05 0)
(0.00300924447527239 1.1895155593018e-05 -3.15894054000151e-21)
(0.00287238572099634 1.18494416959006e-05 3.15909901021e-21)
(0.00273964031076949 1.17685650184232e-05 3.17882668666834e-21)
(0.00261134978679808 1.16577945468195e-05 -3.17897620573866e-21)
(0.0024881964085303 1.15122768884966e-05 -0)
(0.00237031053431612 1.13427606423768e-05 0)
(0.00225867147533118 1.11352040033791e-05 -3.21593932843445e-21)
(0.002152945406009 1.09137834917015e-05 6.44075860381716e-21)
(0.00205482150314741 1.06434786996511e-05 -3.22481168186396e-21)
(0.00196290529739034 1.03801870365654e-05 3.24163096003993e-21)
(0.00188048880925744 1.00411556010988e-05 -3.24173045859414e-21)
(0.00180378432157602 9.75564202739949e-06 3.25784707014179e-21)
(0.00173957115420628 9.33161449096071e-06 -6.52364322214932e-21)
(0.0016788914895409 9.06852139684398e-06 6.53918696782659e-21)
(0.00163567126513456 8.51812563363961e-06 -3.27346199207786e-21)
(0.00159078213522531 8.39531917697948e-06 0)
(0.00157043852502088 7.6715521411829e-06 3.29566480789905e-21)
(0.0015392325379089 8.9644866847773e-06 7.15016552511706e-24)
(0.00150352922422453 2.47885264795965e-05 -3.30290649736009e-21)
(0.00147787764806587 0.000124584195402488 6.63533741250432e-21)
(0.00147522872206852 0.000233573171547781 8.43503920432361e-19)
(0.00149477616954128 0.000347453358571 -7.59839548371527e-35)
(0.00148134207845038 0.000451184422367055 1.70814515327511e-18)
(0.00144975240011704 0.000543224072854568 -5.3320423753299e-35)
(0.00136673056705922 0.000604572211486755 1.72049044346362e-18)
(0.00123519604541203 0.000626441195853013 1.71868153597293e-18)
(0.00103442767396939 0.000587651346328685 3.45065823099612e-18)
(0.000746046965389932 0.000461827963520599 -6.92546170545832e-18)
(0.00035754626143056 0.000233915521275684 1.20370621524202e-35)
(-0.000140060253388839 -0.000102756265029374 -3.4830656300485e-18)
(-0.000745126885030305 -0.00054410056644131 6.01853107621011e-36)
(-0.00145863672836557 -0.00108230643867829 0)
(-0.00226201197851325 -0.0016926305466163 3.49512072350024e-18)
(-0.00311315070115352 -0.0023435572438286 3.41686420645099e-21)
(-0.00400071854754023 -0.00303925193279837 2.35098870164458e-38)
(-0.00497058029053835 -0.00382079856656472 -2.24996965587078e-38)
(-0.00603068619750344 -0.00470542386111653 -1.54036779731753e-34)
(-0.00727609738157237 -0.00577412117423252 1.62500339057673e-34)
(-0.00875488586709441 -0.00708348440220085 -2.15603330691306e-22)
(-0.0107366615416721 -0.00883743302916653 3.41603803982585e-18)
(-0.01351888115314 -0.0111225494700198 -3.37103850412354e-18)
(-0.0171881898217524 -0.0138077781782472 -3.00926553810506e-36)
(-0.0219421544355514 -0.0167613881317489 6.87326783321517e-22)
(-0.0280708043552797 -0.0197180536062228 -9.16436293508515e-23)
(-0.035535115361747 -0.0218380931991148 -2.90705830359406e-18)
(-0.0430387101940804 -0.0213265590986836 2.68876537785275e-18)
(-0.045098603885202 -0.0155471158884472 1.47101730476528e-22)
(-0.0368577460654899 -0.00745623271460623 -5.83425604266635e-19)
(-0.0262843103923678 -0.00246074138641681 2.93052930557473e-19)
(-0.0167543588535749 -0.000369992200785278 -7.17368761945522e-23)
(-0.0119725521080187 -5.6015241238617e-05 0)
)
;
    }
    topWall
    {
        type            calculated;
        value           nonuniform List<vector> 
140
(
(-0.0126162247469798 -7.7842728857775e-07 0)
(-0.012641345305998 -3.83732108992026e-07 0)
(-0.0126520288463923 -1.88319977059104e-09 0)
(-0.0126487783773473 3.64400174367528e-07 0)
(-0.0126321911725885 7.12853917618824e-07 0)
(-0.0126029411817021 1.04168559873614e-06 0)
(-0.0125617622720748 1.34956940723947e-06 0)
(-0.0125094312856498 1.63563109771765e-06 0)
(-0.0124467519776701 1.89942395375902e-06 0)
(-0.0123745397881682 2.14089415310587e-06 0)
(-0.012293608121815 2.36033447502161e-06 0)
(-0.0122047563530769 2.55833313687378e-06 0)
(-0.0121087597450368 2.7357204364518e-06 0)
(-0.0120063612551745 2.89351807277279e-06 0)
(-0.011898265141962 3.03289029187252e-06 0)
(-0.0117851323052418 3.15509916646147e-06 0)
(-0.0116675771786562 3.26146453935547e-06 0)
(-0.0115461660172939 3.35332908672986e-06 0)
(-0.0114214163864133 3.43202872127518e-06 0)
(-0.0112937976599317 3.49886823283428e-06 0)
(-0.0111637323491024 3.55510154063905e-06 0)
(-0.0110315981012032 3.60191636259786e-06 0)
(-0.0108977302097584 3.64042285115846e-06 0)
(-0.010762424502586 3.671645599233e-06 0)
(-0.0106259404921246 3.69651850925465e-06 0)
(-0.0104885046899098 3.71588206640444e-06 0)
(-0.0103503140035789 3.73048258329007e-06 0)
(-0.0102115391483892 3.74097307499255e-06 0)
(-0.0100723280177729 3.74791545257696e-06 0)
(-0.00993280896659315 3.75178382202669e-06 0)
(-0.00979309396906458 3.75296865970623e-06 0)
(-0.00965328161993651 3.75178174342731e-06 0)
(-0.00951345995212874 3.7484616760068e-06 0)
(-0.00937370904999893 3.74317989862167e-06 0)
(-0.00923410344019087 3.73604706930944e-06 0)
(-0.00909471424801025 3.72711966930944e-06 0)
(-0.00895561111165825 3.71640671606354e-06 0)
(-0.00881686385155357 3.70387642880222e-06 0)
(-0.00867854389805507 3.68946272084168e-06 0)
(-0.00854072548467048 3.67307143048108e-06 0)
(-0.00840348661664804 3.65458622580486e-06 0)
(-0.00826690982733561 3.63387412952248e-06 0)
(-0.00813108273620398 3.610790637106e-06 0)
(-0.00799609842332488 3.58518441012056e-06 0)
(-0.00786205563579489 3.55690153248976e-06 0)
(-0.00772905884193131 3.52578932330976e-06 0)
(-0.00759721814929828 3.49169970824736e-06 0)
(-0.0074666491026708 3.45449214890988e-06 0)
(-0.00733747237799319 3.41403613476254e-06 0)
(-0.0072098133882555 3.37021324489315e-06 0)
(-0.00708380181692334 3.32291879330896e-06 0)
(-0.00695957109420359 3.27206306543925e-06 0)
(-0.00683725783091953 3.21757216669844e-06 0)
(-0.00671700122419501 3.15938849928642e-06 0)
(-0.00659894244839726 3.09747089283201e-06 0)
(-0.00648322404399883 3.03179440945502e-06 0)
(-0.0063699893160744 2.96234985332502e-06 0)
(-0.00625938175314719 2.88914301320598e-06 0)
(-0.00615154447601757 2.81219366869053e-06 0)
(-0.00604661972502998 2.73153439295479e-06 0)
(-0.00594474839307371 2.64720918377234e-06 0)
(-0.00584606961034486 2.55927196040707e-06 0)
(-0.00575072038567535 2.46778495373828e-06 0)
(-0.00565883530797434 2.37281703030043e-06 0)
(-0.00557054631011167 2.27444197336968e-06 0)
(-0.00548598249636195 2.17273676708642e-06 0)
(-0.00540527003338504 2.06777989335361e-06 0)
(-0.00532853210362943 1.95964968925071e-06 0)
(-0.00525588891900414 1.84842277578255e-06 0)
(-0.00518745779173663 1.73417259249146e-06 0)
(-0.00512335325845939 1.61696805067529e-06 0)
(-0.0050636872527858 1.49687233005654e-06 0)
(-0.00500856932098862 1.37394183181556e-06 0)
(-0.00495810687470432 1.24822530435968e-06 0)
(-0.00491240547426479 1.11976315161149e-06 0)
(-0.00487156913550254 9.88586935584687e-07 0)
(-0.00483570065308206 8.54719078014371e-07 0)
(-0.00480490193221031 7.18172772950166e-07 0)
(-0.00477927432191885 5.78952104363518e-07 0)
(-0.00475891894032245 4.37052383246356e-07 0)
(-0.00474393698681988 2.92460699970623e-07 0)
(-0.00473443002782991 1.45156652091878e-07 0)
(-0.00473050026008906 -4.88658632298061e-09 0)
(-0.00473225071576622 -1.5770056155624e-07 0)
(-0.00473978541151709 -3.13319981795445e-07 0)
(-0.00475320943325143 -4.71779834834694e-07 0)
(-0.00477262889857074 -6.33116902185804e-07 0)
(-0.00479815110971427 -7.97370948779908e-07 0)
(-0.00482988457304815 -9.64576445454439e-07 0)
(-0.00486793863405162 -1.13475680299054e-06 0)
(-0.00491242305539327 -1.30792337531055e-06 0)
(-0.00496344756034413 -1.48407353834805e-06 0)
(-0.00502112127093893 -1.66318744903857e-06 0)
(-0.0050855520161111 -1.84522410145603e-06 0)
(-0.00515684548036885 -2.03011677390286e-06 0)
(-0.00523510418298404 -2.21776820425685e-06 0)
(-0.00532042627106004 -2.40804523212217e-06 0)
(-0.00541290411199615 -2.6007732214362e-06 0)
(-0.00551262267671909 -2.79572999633997e-06 0)
(-0.0056196576931443 -2.99263940796867e-06 0)
(-0.00573407355996929 -3.19116447225611e-06 0)
(-0.00585592100215518 -3.39090011097657e-06 0)
(-0.00598523445736742 -3.59136557735827e-06 0)
(-0.00612202918174652 -3.79199663563701e-06 0)
(-0.00626629806938762 -3.99213765570105e-06 0)
(-0.00641800818480686 -4.19103378396284e-06 0)
(-0.00657709701557049 -4.38782346616605e-06 0)
(-0.00674346846284353 -4.58153160107453e-06 0)
(-0.0069169885984877 -4.77106371034622e-06 0)
(-0.00709748123313836 -4.95520154211244e-06 0)
(-0.00728472335448403 -5.13260056420658e-06 0)
(-0.00747844051275155 -5.30178985811523e-06 0)
(-0.00767830224929981 -5.46117493267127e-06 0)
(-0.00788391768261843 -5.60904400452474e-06 0)
(-0.00809483138690047 -5.7435783438655e-06 0)
(-0.00831051972014211 -5.86286728342557e-06 0)
(-0.00853038778002164 -5.96492846101356e-06 0)
(-0.00875376718538455 -6.04773379446106e-06 0)
(-0.00897991489754541 -6.10924155609493e-06 0)
(-0.00920801330596828 -6.14743471284871e-06 0)
(-0.00943717180508754 -6.16036542334377e-06 0)
(-0.00966643007994705 -6.14620523799169e-06 0)
(-0.00989476329622301 -6.10330013132593e-06 0)
(-0.0101210893507068 -6.03022900399745e-06 0)
(-0.0103442782830988 -5.92586380717777e-06 0)
(-0.0105631638730825 -5.789428925282e-06 0)
(-0.0107765573576812 -5.62055701787725e-06 0)
(-0.0109832630913989 -5.41933819317044e-06 0)
(-0.0111820958650999 -5.18635922073737e-06 0)
(-0.0113718994628994 -4.92272960506492e-06 0)
(-0.0115515659572432 -4.63009159225784e-06 0)
(-0.0117200550851433 -4.31061204986028e-06 0)
(-0.0118764130981679 -3.96695455676194e-06 0)
(-0.0120197902197369 -3.60223226254216e-06 0)
(-0.0121494562963556 -3.21994117374133e-06 0)
(-0.0122648134327136 -2.82387853019487e-06 0)
(-0.0123654061220616 -2.41804780180808e-06 0)
(-0.0124509266204461 -2.00655020313872e-06 0)
(-0.0125212181773237 -1.5934987115963e-06 0)
(-0.0125762727756423 -1.18285803698555e-06 0)
)
;
    }
    inlet_half0
    {
        type            cyclic;
    }
    inlet_half1
    {
        type            cyclic;
    }
    outlet_half0
    {
        type            cyclic;
    }
    outlet_half1
    {
        type            cyclic;
    }
    sideRight_half0
    {
        type            empty;
    }
    sideRight_half1
    {
        type            empty;
    }
    sideLeft_half0
    {
        type            empty;
    }
    sideLeft_half1
    {
        type            empty;
    }
}


// ************************************************************************* //
