/*--------------------------------*- C++ -*----------------------------------*\
| =========                 |                                                 |
| \\      /  F ield         | OpenFOAM: The Open Source CFD Toolbox           |
|  \\    /   O peration     | Version:  4.1                                   |
|   \\  /    A nd           | Web:      www.OpenFOAM.org                      |
|    \\/     M anipulation  |                                                 |
\*---------------------------------------------------------------------------*/
FoamFile
{
    version     2.0;
    format      ascii;
    class       volScalarField;
    location    "30000";
    object      ccy;
}
// * * * * * * * * * * * * * * * * * * * * * * * * * * * * * * * * * * * * * //

dimensions      [0 1 0 0 0 0 0];

internalField   nonuniform List<scalar> 
21000
(
1.00169621456475
1.001330047543
0.998102251264775
0.98860836155776
0.970611710904625
0.943536385620649
0.909278321469641
0.870410482137292
0.828690471960277
0.78526081372897
0.740931127041909
0.69637447664053
0.652136531371129
0.608446987264128
0.565275145074063
0.522547598582846
0.480182661980581
0.438092438087543
0.396187858848554
0.354475065686604
0.313155777137216
0.272552349346154
0.233033754382519
0.195036877608789
0.159091909733889
0.125805238767616
0.0956998812077533
0.0691847959810226
0.0466661142374481
0.0285499706127523
0.0152150343329826
0.00698178262934679
0.00378423774987635
0.0033924291295009
0.00339242912950104
0.00339242912950087
0.00339242912950087
0.00339242912950096
0.00339242912950095
0.00339242912950096
0.00339242912950096
0.00339242912950079
0.00339242912950104
0.00339242912950087
0.00339242912950101
0.00339242912950099
0.00339242912950117
0.00339242912950096
0.00339242912950096
0.00339242912950087
0.00339242912950095
0.00339242912950096
0.0033924291295009
0.00339242912950091
0.00339242912950101
0.00339242912950079
0.0033924291295009
0.00339242912950087
0.00339242912950085
0.00339242912950082
0.00339242912950084
0.00339242912950096
0.00339242912950095
0.00339242912950096
0.00339242912950096
0.0033924291295009
0.00339242912950096
0.00339242912950086
0.00339242912950097
0.00339242912950077
0.00339242912950076
0.00339242912950097
0.00339242912950088
0.00339242912950096
0.00339242912950087
0.00339242912950104
0.00339242912950088
0.00339242912950088
0.00339242912950095
0.00339242912950096
0.00339242912950096
0.00339242912950095
0.0033924291295008
0.00339242912950104
0.00339242912950087
0.00339242912950098
0.00339242912950093
0.00339242912950107
0.00339242912950088
0.00339242912950096
0.00339242912950087
0.00339242912950095
0.00339242912950096
0.00339242912950087
0.00339242912950095
0.00339242912950096
0.00339242912950087
0.00339242912950096
0.00339242912950096
0.00339242912950095
0.00339242912950088
0.00339242912950096
0.00339242912950087
0.00339242912950103
0.00339242912950088
0.00339242912950087
0.00339242912950096
0.00378423774987815
0.00698178262935388
0.0152150343329963
0.0285499706127714
0.0466661142374742
0.0691847959810525
0.0956998812077872
0.125805238767655
0.159091909733934
0.195036877608834
0.233033754382568
0.272552349346204
0.313155777137271
0.354475065686653
0.396187858848603
0.438092438087315
0.480182661981001
0.522547598582823
0.565275145073538
0.608446987263221
0.652136531369752
0.696374476641183
0.740931127042208
0.785260813728823
0.828690471959762
0.870410482136448
0.909278321470744
0.943536385621154
0.9706117109042
0.98860836155798
0.998102251265024
1.00133004754306
1.00169621456475
1.00514237247296
1.00477746947017
1.00156081535578
0.992099698327414
0.974165177024096
0.947183338114284
0.913043568732213
0.874309936732743
0.832733970080286
0.789454244669205
0.745277585130788
0.700874734390172
0.65678948284608
0.613250741792714
0.570227918513743
0.527647859585397
0.485429160737724
0.443484227877685
0.401724300093456
0.360155495916398
0.318978836167389
0.278515564554109
0.239133379986633
0.201267660258204
0.165446766411309
0.132274994193473
0.102273555445488
0.0758499972215763
0.0534090483656017
0.0353554411533296
0.0220665372446271
0.0138617072750642
0.0106752009379516
0.0102847449459098
0.0102847449459099
0.0102847449459099
0.0102847449459098
0.0102847449459097
0.0102847449459098
0.0102847449459098
0.0102847449459098
0.0102847449459098
0.0102847449459097
0.0102847449459098
0.0102847449459098
0.0102847449459098
0.0102847449459097
0.0102847449459099
0.0102847449459098
0.0102847449459097
0.0102847449459098
0.0102847449459097
0.0102847449459099
0.0102847449459099
0.0102847449459098
0.0102847449459098
0.0102847449459097
0.0102847449459098
0.0102847449459098
0.0102847449459098
0.0102847449459099
0.0102847449459098
0.0102847449459097
0.0102847449459098
0.0102847449459099
0.0102847449459098
0.0102847449459098
0.0102847449459098
0.0102847449459097
0.0102847449459097
0.0102847449459097
0.0102847449459097
0.0102847449459098
0.0102847449459098
0.0102847449459098
0.0102847449459098
0.0102847449459099
0.0102847449459097
0.0102847449459098
0.0102847449459098
0.0102847449459098
0.0102847449459098
0.0102847449459098
0.0102847449459097
0.0102847449459099
0.0102847449459099
0.0102847449459098
0.0102847449459099
0.0102847449459097
0.0102847449459098
0.0102847449459099
0.0102847449459098
0.0102847449459097
0.0102847449459099
0.0102847449459097
0.0102847449459098
0.0102847449459098
0.0102847449459097
0.0102847449459097
0.0102847449459098
0.01028474494591
0.0102847449459098
0.0102847449459098
0.0102847449459097
0.0102847449459099
0.0102847449459099
0.0102847449459098
0.0106752009379535
0.0138617072750713
0.0220665372446407
0.035355441153349
0.0534090483656268
0.075849997221607
0.102273555445525
0.132274994193512
0.16544676641135
0.201267660258247
0.239133379986685
0.278515564554158
0.318978836167436
0.360155495916454
0.401724300093509
0.443484227877448
0.485429160738152
0.527647859585367
0.570227918513221
0.613250741791812
0.656789482844712
0.70087473439081
0.745277585131092
0.789454244669053
0.832733970079777
0.874309936731909
0.9130435687333
0.947183338114787
0.974165177023675
0.992099698327634
1.00156081535602
1.00477746947023
1.00514237247296
1.00869744668744
1.00833384765365
1.00512868786498
0.99570137934616
0.97783095107334
0.950945553186691
0.916927817168223
0.878332633970813
0.836905263225673
0.79378020922692
0.749761413310497
0.70551722318901
0.661589491402488
0.618206319655349
0.575337225127862
0.532909315186614
0.49084147600442
0.449046426157549
0.407435721587683
0.366015457215974
0.324985934098271
0.284667248340831
0.245425785451441
0.207695368002287
0.172002469537963
0.138949227417251
0.109054991794632
0.0827258532366364
0.0603650939677961
0.0423759995891947
0.0291345828751798
0.0209590728980685
0.0177839539856135
0.0173948933748674
0.0173948933748674
0.0173948933748675
0.0173948933748674
0.0173948933748673
0.0173948933748674
0.0173948933748675
0.0173948933748674
0.0173948933748673
0.0173948933748674
0.0173948933748674
0.0173948933748674
0.0173948933748673
0.0173948933748674
0.0173948933748673
0.0173948933748673
0.0173948933748673
0.0173948933748674
0.0173948933748674
0.0173948933748674
0.0173948933748673
0.0173948933748674
0.0173948933748675
0.0173948933748673
0.0173948933748674
0.0173948933748674
0.0173948933748676
0.0173948933748674
0.0173948933748673
0.0173948933748674
0.0173948933748673
0.0173948933748673
0.0173948933748675
0.0173948933748673
0.0173948933748674
0.0173948933748674
0.0173948933748674
0.0173948933748674
0.0173948933748674
0.0173948933748674
0.0173948933748673
0.0173948933748675
0.0173948933748673
0.0173948933748674
0.0173948933748674
0.0173948933748673
0.0173948933748674
0.0173948933748674
0.0173948933748674
0.0173948933748674
0.0173948933748674
0.0173948933748674
0.0173948933748675
0.0173948933748675
0.0173948933748673
0.0173948933748674
0.0173948933748674
0.0173948933748673
0.0173948933748673
0.0173948933748674
0.0173948933748674
0.0173948933748674
0.0173948933748674
0.0173948933748674
0.0173948933748674
0.0173948933748673
0.0173948933748674
0.0173948933748675
0.0173948933748675
0.0173948933748672
0.0173948933748674
0.0173948933748675
0.0173948933748675
0.0173948933748674
0.0177839539856154
0.0209590728980756
0.0291345828751933
0.0423759995892141
0.0603650939678213
0.0827258532366669
0.109054991794668
0.13894922741729
0.172002469538004
0.207695368002336
0.245425785451486
0.284667248340884
0.324985934098317
0.366015457216026
0.407435721587736
0.449046426157318
0.490841476004837
0.532909315186589
0.575337225127341
0.618206319654447
0.661589491401124
0.705517223189653
0.749761413310794
0.793780209226773
0.836905263225167
0.878332633969972
0.916927817169315
0.950945553187191
0.977830951072917
0.995701379346375
1.00512868786522
1.00833384765371
1.00869744668744
1.01236487951909
1.01200262566698
1.00880932349686
0.999416892058987
0.981612582564457
0.954826673731894
0.920934827822317
0.882482468937534
0.841208390352854
0.798242896118852
0.754386953156803
0.710306438249954
0.666541204788247
0.623318519244072
0.580608012168223
0.538337059966776
0.496424848439802
0.45478441871859
0.4133276536155
0.372060623700528
0.33118288751727
0.291013357295615
0.251917063625494
0.214326224699998
0.178765366906194
0.145834400997743
0.116050756611493
0.0898190218014925
0.067540986459704
0.0496184437976955
0.0364260150794828
0.0282807517417985
0.0251173801632631
0.0247297590381798
0.0247297590381799
0.0247297590381799
0.0247297590381798
0.0247297590381799
0.0247297590381798
0.0247297590381798
0.0247297590381799
0.0247297590381799
0.0247297590381799
0.0247297590381798
0.0247297590381799
0.0247297590381798
0.0247297590381798
0.0247297590381799
0.0247297590381799
0.0247297590381798
0.0247297590381798
0.0247297590381798
0.0247297590381798
0.0247297590381799
0.0247297590381799
0.0247297590381797
0.0247297590381799
0.0247297590381798
0.0247297590381799
0.0247297590381799
0.0247297590381798
0.0247297590381798
0.0247297590381798
0.0247297590381799
0.0247297590381799
0.0247297590381799
0.0247297590381799
0.0247297590381798
0.0247297590381798
0.02472975903818
0.0247297590381799
0.0247297590381799
0.0247297590381798
0.0247297590381799
0.0247297590381799
0.02472975903818
0.0247297590381798
0.0247297590381799
0.0247297590381798
0.0247297590381798
0.0247297590381799
0.0247297590381798
0.0247297590381799
0.0247297590381798
0.0247297590381798
0.0247297590381799
0.0247297590381798
0.0247297590381799
0.0247297590381799
0.0247297590381798
0.0247297590381799
0.0247297590381798
0.0247297590381799
0.0247297590381798
0.02472975903818
0.0247297590381799
0.0247297590381799
0.0247297590381798
0.0247297590381797
0.0247297590381798
0.0247297590381799
0.0247297590381799
0.0247297590381799
0.0247297590381798
0.0247297590381798
0.0247297590381799
0.0247297590381798
0.0251173801632647
0.0282807517418056
0.0364260150794962
0.0496184437977146
0.0675409864597289
0.0898190218015232
0.116050756611528
0.145834400997782
0.178765366906234
0.214326224700046
0.251917063625543
0.29101335729566
0.331182887517325
0.372060623700579
0.413327653615553
0.454784418718355
0.496424848440221
0.538337059966751
0.580608012167708
0.623318519243169
0.666541204786889
0.710306438250591
0.754386953157099
0.798242896118713
0.841208390352337
0.882482468936704
0.920934827823407
0.954826673732389
0.981612582564039
0.999416892059202
1.0088093234971
1.01200262566704
1.01236487951909
1.01614822207313
1.01578735591794
1.01260628614195
1.00324983413191
0.985513733192509
0.958830457778211
0.925068480607088
0.886763459822633
0.845647518068463
0.802846626444943
0.759158683459905
0.715247016856416
0.671649417643086
0.628592290604251
0.586045383244967
0.543936349521053
0.502184684334903
0.460703761571195
0.419405801246934
0.37829684881691
0.337575696846423
0.297560036267166
0.258613499923357
0.221166650916853
0.185742006931744
0.152937181744161
0.12326762378309
0.097136371111198
0.0749436741303334
0.057089786503393
0.0439478940125593
0.035833833247033
0.0326825802871811
0.0322964441462582
0.0322964441462584
0.0322964441462581
0.0322964441462583
0.0322964441462581
0.0322964441462582
0.0322964441462582
0.0322964441462582
0.0322964441462582
0.0322964441462581
0.0322964441462581
0.0322964441462582
0.0322964441462582
0.0322964441462583
0.0322964441462582
0.0322964441462583
0.0322964441462582
0.0322964441462581
0.0322964441462581
0.0322964441462582
0.0322964441462582
0.0322964441462582
0.0322964441462582
0.032296444146258
0.0322964441462582
0.0322964441462583
0.0322964441462582
0.0322964441462581
0.0322964441462581
0.0322964441462582
0.0322964441462583
0.0322964441462581
0.0322964441462582
0.0322964441462582
0.0322964441462583
0.0322964441462582
0.0322964441462583
0.0322964441462583
0.0322964441462582
0.0322964441462583
0.0322964441462581
0.0322964441462582
0.0322964441462582
0.0322964441462582
0.0322964441462582
0.0322964441462581
0.0322964441462581
0.0322964441462581
0.0322964441462581
0.0322964441462582
0.0322964441462581
0.0322964441462582
0.0322964441462582
0.0322964441462582
0.032296444146258
0.0322964441462581
0.0322964441462581
0.0322964441462582
0.0322964441462584
0.0322964441462581
0.0322964441462583
0.0322964441462582
0.0322964441462583
0.032296444146258
0.0322964441462582
0.0322964441462581
0.0322964441462581
0.0322964441462583
0.0322964441462581
0.0322964441462582
0.0322964441462581
0.0322964441462583
0.0322964441462583
0.0322964441462581
0.0326825802871831
0.0358338332470398
0.0439478940125725
0.0570897865034124
0.0749436741303581
0.0971363711112285
0.123267623783124
0.1529371817442
0.185742006931787
0.221166650916895
0.258613499923404
0.297560036267215
0.337575696846473
0.378296848816961
0.419405801246986
0.460703761570965
0.502184684335317
0.543936349521025
0.586045383244455
0.628592290603362
0.67164941764173
0.715247016857047
0.759158683460205
0.802846626444793
0.845647518067964
0.886763459821799
0.92506848060817
0.958830457778708
0.98551373319209
1.00324983413213
1.01260628614219
1.015787355918
1.01614822207313
1.02005113768748
1.01969170308821
1.01652325232765
1.00720391693551
0.989538180381083
0.962960782127092
0.929332778059888
0.891179751810144
0.850226944663672
0.80759585787222
0.764081224561013
0.720343742852383
0.676919076141055
0.634032740227578
0.591654603268279
0.549712605548385
0.508126560847459
0.466810186324502
0.425676049861917
0.384730171011471
0.344170552152477
0.304313624313675
0.265521578411668
0.228223270141904
0.192939144994509
0.160264447171513
0.1307125812862
0.10468498643089
0.0825803248698768
0.0647972620682944
0.0517075029657478
0.0436256309163762
0.0404868795950341
0.0401022753749731
0.040102275374973
0.0401022753749731
0.0401022753749731
0.0401022753749732
0.040102275374973
0.040102275374973
0.0401022753749732
0.0401022753749731
0.0401022753749731
0.0401022753749733
0.040102275374973
0.0401022753749731
0.0401022753749731
0.0401022753749732
0.0401022753749732
0.0401022753749731
0.0401022753749732
0.040102275374973
0.0401022753749731
0.0401022753749731
0.0401022753749732
0.040102275374973
0.0401022753749731
0.0401022753749731
0.040102275374973
0.0401022753749732
0.0401022753749731
0.0401022753749731
0.0401022753749732
0.040102275374973
0.0401022753749731
0.0401022753749731
0.0401022753749731
0.040102275374973
0.0401022753749732
0.0401022753749731
0.0401022753749731
0.040102275374973
0.0401022753749731
0.0401022753749731
0.040102275374973
0.0401022753749732
0.0401022753749731
0.0401022753749732
0.0401022753749731
0.0401022753749731
0.040102275374973
0.0401022753749731
0.040102275374973
0.0401022753749731
0.040102275374973
0.0401022753749731
0.0401022753749731
0.0401022753749731
0.0401022753749731
0.040102275374973
0.040102275374973
0.0401022753749733
0.0401022753749731
0.0401022753749731
0.040102275374973
0.0401022753749731
0.0401022753749731
0.0401022753749731
0.0401022753749731
0.0401022753749731
0.040102275374973
0.0401022753749731
0.0401022753749733
0.040102275374973
0.0401022753749731
0.0401022753749732
0.040102275374973
0.0404868795950357
0.0436256309163831
0.051707502965761
0.0647972620683131
0.0825803248699016
0.10468498643092
0.130712581286235
0.160264447171549
0.192939144994553
0.228223270141948
0.265521578411716
0.304313624313724
0.344170552152526
0.384730171011525
0.425676049861965
0.466810186324267
0.508126560847878
0.54971260554836
0.591654603267769
0.634032740226681
0.676919076139708
0.720343742853015
0.764081224561311
0.807595857872077
0.850226944663167
0.891179751809317
0.929332778060962
0.962960782127588
0.989538180380666
1.00720391693573
1.01652325232789
1.01969170308827
1.02005113768748
1.02407740547992
1.02371944768176
1.02056401477811
1.01128296913853
0.993689820939897
0.967221646106966
0.933731849218366
0.895735621092038
0.854951104275986
0.81249518895091
0.769159342825974
0.725601551274395
0.682355282779725
0.639645135996522
0.59744110354628
0.555671421101217
0.514256231402192
0.473109605736229
0.432144470849025
0.391366819576972
0.350973839140735
0.311280660840823
0.272647988087644
0.235502915201196
0.200363749979696
0.167823292160003
0.138392837953682
0.112472176956301
0.0904583331102043
0.0727483334966715
0.0597123554188914
0.0516636893956924
0.0485378348386716
0.0481548109598488
0.0481548109598488
0.0481548109598489
0.0481548109598488
0.0481548109598488
0.048154810959849
0.0481548109598488
0.0481548109598487
0.0481548109598488
0.048154810959849
0.0481548109598487
0.0481548109598489
0.0481548109598488
0.048154810959849
0.0481548109598487
0.0481548109598489
0.0481548109598488
0.0481548109598488
0.0481548109598489
0.0481548109598488
0.0481548109598489
0.0481548109598489
0.0481548109598489
0.0481548109598489
0.0481548109598488
0.0481548109598488
0.048154810959849
0.048154810959849
0.0481548109598489
0.0481548109598488
0.0481548109598488
0.0481548109598488
0.0481548109598488
0.0481548109598487
0.0481548109598489
0.0481548109598488
0.0481548109598489
0.0481548109598488
0.048154810959849
0.0481548109598488
0.0481548109598487
0.0481548109598489
0.0481548109598487
0.0481548109598489
0.0481548109598487
0.048154810959849
0.048154810959849
0.048154810959849
0.0481548109598488
0.0481548109598488
0.0481548109598488
0.0481548109598489
0.0481548109598488
0.0481548109598488
0.0481548109598489
0.0481548109598486
0.0481548109598488
0.0481548109598488
0.0481548109598488
0.0481548109598487
0.0481548109598489
0.0481548109598489
0.0481548109598488
0.0481548109598489
0.0481548109598488
0.0481548109598489
0.0481548109598487
0.048154810959849
0.0481548109598488
0.0481548109598487
0.048154810959849
0.0481548109598488
0.0481548109598487
0.0481548109598489
0.0485378348386734
0.0516636893956993
0.0597123554189045
0.0727483334966904
0.0904583331102287
0.112472176956332
0.138392837953716
0.167823292160043
0.200363749979736
0.23550291520124
0.272647988087691
0.311280660840871
0.350973839140786
0.39136681957702
0.43214447084908
0.473109605736002
0.514256231402603
0.55567142110119
0.597441103545769
0.639645135995639
0.682355282778378
0.725601551275027
0.769159342826267
0.812495188950766
0.854951104275485
0.895735621091215
0.933731849219444
0.967221646107457
0.993689820939483
1.01128296913875
1.02056401477835
1.02371944768182
1.02407740547992
1.02823092400723
1.0278744896854
1.02473248608659
1.01549094041512
0.997972674838044
0.971617175445722
0.938269953618508
0.900435479008657
0.859824571182579
0.81754936356694
0.774397955260293
0.731025533129915
0.687963301320748
0.645434912285086
0.60341048704403
0.561818566001137
0.520579631261743
0.479608119437908
0.438817327484337
0.398213220684366
0.357992145338217
0.318467891933847
0.279999629355932
0.243012634873937
0.208023011025709
0.175621035824917
0.146315830454666
0.120505482891101
0.0985853269846991
0.0809506996612777
0.0679702023154046
0.0599557917793436
0.0568432416010925
0.0564618480144651
0.0564618480144651
0.056461848014465
0.0564618480144652
0.0564618480144651
0.0564618480144652
0.0564618480144653
0.056461848014465
0.056461848014465
0.0564618480144651
0.0564618480144651
0.0564618480144651
0.0564618480144653
0.0564618480144651
0.0564618480144651
0.0564618480144652
0.0564618480144652
0.0564618480144651
0.0564618480144651
0.0564618480144652
0.056461848014465
0.0564618480144652
0.0564618480144651
0.0564618480144653
0.0564618480144651
0.0564618480144652
0.0564618480144652
0.0564618480144652
0.0564618480144652
0.0564618480144651
0.0564618480144651
0.0564618480144653
0.0564618480144651
0.056461848014465
0.056461848014465
0.0564618480144652
0.056461848014465
0.0564618480144651
0.0564618480144651
0.056461848014465
0.0564618480144651
0.0564618480144653
0.0564618480144653
0.0564618480144651
0.0564618480144653
0.0564618480144651
0.0564618480144653
0.0564618480144653
0.0564618480144651
0.0564618480144651
0.0564618480144652
0.0564618480144651
0.0564618480144651
0.056461848014465
0.0564618480144651
0.0564618480144652
0.0564618480144651
0.0564618480144651
0.0564618480144651
0.0564618480144651
0.0564618480144651
0.0564618480144653
0.0564618480144651
0.056461848014465
0.0564618480144652
0.0564618480144649
0.0564618480144651
0.0564618480144652
0.0564618480144652
0.056461848014465
0.0564618480144651
0.056461848014465
0.0564618480144652
0.0564618480144651
0.0568432416010944
0.0599557917793505
0.0679702023154176
0.0809506996612966
0.0985853269847239
0.12050548289113
0.146315830454701
0.175621035824956
0.208023011025749
0.243012634873984
0.279999629355979
0.318467891933898
0.357992145338263
0.398213220684416
0.438817327484392
0.479608119437672
0.520579631262157
0.561818566001113
0.603410487043524
0.645434912284197
0.687963301319412
0.731025533130547
0.774397955260587
0.817549363566793
0.859824571182081
0.900435479007841
0.938269953619577
0.971617175446212
0.997972674837633
1.01549094041533
1.02473248608683
1.02787448968546
1.02823092400723
1.03251571504008
1.03216085234501
1.02903270250393
1.01983190526917
1.00239088909646
0.97615162626559
0.942951485419001
0.905283876320019
0.864852064229322
0.822763275535178
0.779802134269991
0.736620940326718
0.693748561886567
0.651407675220737
0.609568533808748
0.568159992425678
0.527102883273696
0.486312019841073
0.445701080996036
0.405276003605193
0.365232266472323
0.325882276889699
0.287583620710259
0.250759700717762
0.215924344485325
0.183665228603598
0.154489230495352
0.128792682747896
0.106969175714384
0.0894123027579407
0.0764890395672666
0.0685099671463055
0.0654111418446563
0.0650314300801531
0.0650314300801531
0.0650314300801531
0.0650314300801531
0.0650314300801531
0.0650314300801532
0.0650314300801531
0.0650314300801531
0.0650314300801531
0.0650314300801532
0.0650314300801532
0.0650314300801531
0.065031430080153
0.0650314300801533
0.0650314300801531
0.0650314300801531
0.0650314300801532
0.0650314300801532
0.0650314300801531
0.0650314300801532
0.0650314300801531
0.0650314300801532
0.0650314300801532
0.0650314300801531
0.0650314300801531
0.0650314300801532
0.0650314300801531
0.0650314300801532
0.0650314300801532
0.0650314300801531
0.0650314300801532
0.0650314300801532
0.0650314300801533
0.065031430080153
0.0650314300801531
0.0650314300801531
0.065031430080153
0.065031430080153
0.0650314300801531
0.0650314300801532
0.0650314300801533
0.0650314300801531
0.0650314300801532
0.0650314300801532
0.0650314300801532
0.0650314300801534
0.0650314300801532
0.065031430080153
0.0650314300801532
0.0650314300801532
0.0650314300801531
0.0650314300801531
0.0650314300801532
0.0650314300801531
0.0650314300801532
0.0650314300801531
0.065031430080153
0.0650314300801531
0.0650314300801532
0.0650314300801531
0.0650314300801532
0.065031430080153
0.0650314300801531
0.0650314300801533
0.0650314300801531
0.0650314300801531
0.0650314300801532
0.065031430080153
0.0650314300801531
0.0650314300801531
0.0650314300801531
0.0650314300801532
0.0650314300801531
0.0650314300801531
0.0654111418446579
0.0685099671463124
0.0764890395672797
0.0894123027579596
0.106969175714409
0.128792682747927
0.154489230495385
0.183665228603635
0.215924344485366
0.250759700717806
0.287583620710307
0.325882276889745
0.365232266472375
0.405276003605246
0.445701080996083
0.486312019840844
0.527102883274106
0.568159992425651
0.609568533808246
0.651407675219854
0.693748561885239
0.736620940327342
0.779802134270281
0.822763275535043
0.864852064228824
0.905283876319204
0.94295148542006
0.97615162626608
1.00239088909605
1.01983190526939
1.02903270250417
1.03216085234507
1.03251571504008
1.03693592745715
1.03658268606114
1.03346882784672
1.02431006697963
1.00694874180338
0.980829389204272
0.947780977655987
0.910285507612112
0.870038451399769
0.828141973337815
0.785377112572938
0.742393190758057
0.699716666218192
0.657569208112658
0.615921206566494
0.574701840671693
0.53383230379922
0.493227798230107
0.452802396820791
0.41256200713059
0.372701213051073
0.333530994955689
0.295407305626165
0.258751614109708
0.224075401106859
0.191963659566445
0.162920952247372
0.137341800880011
0.115617997227481
0.0981413359957518
0.0852771157972052
0.0773344983344579
0.0742498316978513
0.073871854914295
0.0738718549142952
0.0738718549142952
0.0738718549142952
0.0738718549142952
0.0738718549142951
0.0738718549142952
0.0738718549142951
0.0738718549142952
0.0738718549142951
0.0738718549142952
0.0738718549142951
0.0738718549142952
0.0738718549142952
0.0738718549142951
0.0738718549142952
0.0738718549142952
0.0738718549142952
0.0738718549142951
0.0738718549142953
0.0738718549142951
0.0738718549142951
0.0738718549142952
0.0738718549142951
0.0738718549142952
0.0738718549142952
0.073871854914295
0.0738718549142952
0.0738718549142951
0.0738718549142952
0.0738718549142952
0.0738718549142951
0.073871854914295
0.0738718549142951
0.0738718549142952
0.0738718549142951
0.0738718549142951
0.0738718549142951
0.073871854914295
0.0738718549142952
0.073871854914295
0.0738718549142952
0.0738718549142952
0.073871854914295
0.073871854914295
0.0738718549142953
0.0738718549142952
0.073871854914295
0.0738718549142953
0.0738718549142951
0.0738718549142951
0.0738718549142952
0.0738718549142952
0.073871854914295
0.0738718549142952
0.0738718549142951
0.0738718549142951
0.0738718549142951
0.0738718549142952
0.073871854914295
0.0738718549142951
0.0738718549142951
0.073871854914295
0.0738718549142951
0.0738718549142952
0.0738718549142952
0.0738718549142951
0.0738718549142951
0.0738718549142951
0.0738718549142951
0.0738718549142951
0.0738718549142952
0.0738718549142951
0.0738718549142952
0.074249831697853
0.0773344983344647
0.0852771157972181
0.0981413359957704
0.115617997227505
0.13734180088004
0.162920952247408
0.191963659566482
0.2240754011069
0.258751614109752
0.295407305626212
0.333530994955737
0.372701213051122
0.412562007130637
0.452802396820845
0.49322779822988
0.533832303799628
0.574701840671669
0.615921206565987
0.657569208111784
0.699716666216867
0.742393190758679
0.785377112573233
0.828141973337667
0.870038451399272
0.910285507611301
0.94778097765705
0.980829389204756
1.00694874180297
1.02431006697984
1.03346882784696
1.0365826860612
1.03693592745715
1.04149584126238
1.04114427240768
1.03804515752899
1.02892976167032
1.01165064625682
0.985654993666323
0.952763106632254
0.915445215842448
0.875388754528546
0.833690665012507
0.791128288265393
0.748347873548546
0.705873393099168
0.663925477051551
0.622474656495726
0.581450445100885
0.540774408829101
0.50036215104766
0.460128151057778
0.420078286193256
0.380406217151279
0.341421452281064
0.303478259671657
0.266996113509746
0.232484073442308
0.200524363958955
0.171619160010961
0.146161115251276
0.124540166019782
0.107146251530304
0.0943429403255673
0.0864379299605766
0.083367869488162
0.0829916825247685
0.0829916825247685
0.0829916825247684
0.0829916825247685
0.0829916825247685
0.0829916825247686
0.0829916825247684
0.0829916825247685
0.0829916825247684
0.0829916825247684
0.0829916825247684
0.0829916825247685
0.0829916825247684
0.0829916825247685
0.0829916825247685
0.0829916825247684
0.0829916825247685
0.0829916825247684
0.0829916825247683
0.0829916825247685
0.0829916825247684
0.0829916825247686
0.0829916825247684
0.0829916825247685
0.0829916825247685
0.0829916825247684
0.0829916825247686
0.0829916825247684
0.0829916825247685
0.0829916825247686
0.0829916825247684
0.0829916825247686
0.0829916825247683
0.0829916825247684
0.0829916825247684
0.0829916825247685
0.0829916825247684
0.0829916825247683
0.0829916825247685
0.0829916825247685
0.0829916825247684
0.0829916825247684
0.0829916825247684
0.0829916825247685
0.0829916825247685
0.0829916825247685
0.0829916825247684
0.0829916825247686
0.0829916825247684
0.0829916825247685
0.0829916825247685
0.0829916825247684
0.0829916825247685
0.0829916825247686
0.0829916825247684
0.0829916825247684
0.0829916825247685
0.0829916825247685
0.0829916825247685
0.0829916825247684
0.0829916825247684
0.0829916825247684
0.0829916825247684
0.0829916825247685
0.0829916825247685
0.0829916825247683
0.0829916825247684
0.0829916825247685
0.0829916825247685
0.0829916825247684
0.0829916825247684
0.0829916825247683
0.0829916825247686
0.0829916825247684
0.0833678694881639
0.0864379299605832
0.0943429403255803
0.107146251530323
0.124540166019806
0.146161115251305
0.171619160010995
0.200524363958993
0.232484073442348
0.26699611350979
0.303478259671703
0.341421452281114
0.380406217151326
0.420078286193306
0.460128151057829
0.500362151047433
0.540774408829506
0.58145044510086
0.622474656495228
0.663925477050681
0.705873393097848
0.748347873549165
0.79112828826568
0.833690665012371
0.875388754528051
0.91544521584164
0.952763106633309
0.985654993666807
1.01165064625641
1.02892976167053
1.03804515752922
1.04114427240774
1.04149584126238
1.04619987172915
1.04585002827757
1.04276612272131
1.0336954625086
1.01650115523783
0.990633112208918
0.957902696445156
0.920767997029262
0.88090815416371
0.839414723194998
0.797061230048669
0.754490754465846
0.712224703950927
0.670482636686425
0.629235229183339
0.588412340273239
0.547935920293057
0.507721986378713
0.467685437126732
0.427832118698638
0.388354739421329
0.349561289088347
0.31180429784256
0.275501181953842
0.24115850348962
0.209355630982144
0.180592276120283
0.155259165451394
0.133744321263455
0.116435768647654
0.103695291409609
0.0958290766937898
0.0927740840288052
0.0923997434583125
0.0923997434583125
0.0923997434583125