/*--------------------------------*- C++ -*----------------------------------*\
| =========                 |                                                 |
| \\      /  F ield         | OpenFOAM: The Open Source CFD Toolbox           |
|  \\    /   O peration     | Version:  4.1                                   |
|   \\  /    A nd           | Web:      www.OpenFOAM.org                      |
|    \\/     M anipulation  |                                                 |
\*---------------------------------------------------------------------------*/
FoamFile
{
    version     2.0;
    format      ascii;
    class       volScalarField;
    location    "30000";
    object      ccz;
}
// * * * * * * * * * * * * * * * * * * * * * * * * * * * * * * * * * * * * * //

dimensions      [0 1 0 0 0 0 0];

internalField   nonuniform List<scalar> 
21000
(
0
-1.61199032140161e-18
0
-3.2524829236559e-18
0
0
9.47389654895732e-20
-6.66039738024733e-18
6.57898625148308e-18
8.11771451758966e-18
3.19422067135759e-18
-4.45330711913669e-18
0
-8.20908091886765e-18
0
0
0
0
2.15867499566127e-18
-6.74189161077707e-18
6.2387652036918e-18
6.20562062084538e-18
0
-1.98106545274721e-18
0
0
1.77229447484723e-18
-1.01208676048225e-17
9.59456781023833e-20
0
-3.14354673932917e-18
3.12362517404233e-18
2.81189982628249e-16
2.89872420578141e-16
0
-3.12805342086975e-18
-9.63735265669931e-20
0
0
0
-3.12805342089384e-18
0
-9.63735265669929e-20
0
9.63735265669958e-20
0
-2.81253651394383e-16
-2.81616464562893e-16
-6.25610684179385e-18
3.03167989427229e-18
6.2561068417462e-18
0
2.7973781144423e-16
2.82193815519218e-16
0
-9.63735265669946e-20
0
-1.61221347371188e-18
-3.12805342088281e-18
-3.12805342086971e-18
0
0
-9.63735265669914e-20
0
-1.61221347371828e-18
-2.81350024917463e-16
-1.32114431760029e-17
2.7232315872548e-16
0
1.61221347371842e-18
1.61221347371842e-18
1.6122134737184e-18
1.61221347371837e-18
0
0
1.61221347371837e-18
-1.61221347371838e-18
-1.61221347371551e-18
0
-6.25610684174e-18
0
-4.74026689460765e-18
1.61221347371187e-18
0
0
-2.85897544762339e-16
-5.6980576699396e-16
-2.82729130908484e-16
0
-9.63735265669955e-20
0
0
-1.61221347371827e-18
0
9.6373526566991e-20
-6.25610684174001e-18
-4.74026689458818e-18
0
0
3.12805342089382e-18
-1.61221347371838e-18
0
0
0
-1.61221347371837e-18
-4.74026689458818e-18
1.61221347370812e-18
-1.51496892536747e-18
-6.24770094607553e-18
1.6202891253205e-18
-1.64255385508839e-18
-1.67593352772621e-18
4.96565031830906e-18
-3.4501109694622e-18
3.67321636036361e-18
1.81063124232344e-18
-7.63978530295879e-18
9.73830447638452e-20
0
-4.32017914933941e-18
-1.10168378383603e-17
-4.70283497898419e-18
7.07507482565678e-18
0
4.98848911486406e-18
-5.08904138751017e-18
0
-5.66061307184354e-18
5.83962154371373e-18
0
-7.92497771476877e-18
-1.64474656279395e-18
0
3.22047992921267e-18
-6.49436850991557e-18
-3.33108870629007e-18
6.21853407627954e-18
0
-3.12769539357378e-18
9.63735265669973e-20
0
-1.92727093172497e-19
0
-1.92215759545257e-19
-1.91803704645622e-19
-1.91387347228308e-19
1.0028634988029e-17
-3.03541376472146e-18
-6.94575484409932e-18
-3.10875052009315e-18
0
5.75190310066882e-18
-2.7418855997555e-18
0
3.82497742169328e-19
0
0
4.89003175627943e-18
-6.93451654438749e-18
-8.8475599584491e-18
4.28342864101175e-18
2.16542102936745e-18
-4.18479929218603e-18
0
-3.70184295203766e-18
0
0
2.29952458101576e-16
-1.00906514328239e-18
-2.50398827135164e-16
0
0
-2.74852976460978e-16
-2.71166652871392e-16
0
0
1.66247698044903e-18
0
3.13219740231957e-18
0
0
-1.92756558563469e-19
-3.13219740232495e-18
-1.66247698044153e-18
0
-4.79467438271355e-18
2.82933494353812e-16
2.72655292238998e-16
1.92756558563468e-19
0
-2.37492585784814e-16
-2.34461065665371e-16
-2.76476342987662e-16
-2.75830636002446e-16
1.46972042189335e-18
0
0
0
-1.92756558563467e-19
0
0
0
-1.66247698043887e-18
-4.60191782419763e-18
1.66247698044128e-18
2.76861856104339e-16
1.15467378300622e-17
-2.64310945605697e-16
6.2643948046387e-18
0
0
1.92756558563477e-19
0
4.79467438276818e-18
-3.13219740231466e-18
1.66247698044142e-18
0
0
-1.92756558563466e-19
0
0
6.26439480466402e-18
1.92756558563467e-19
1.92756558563472e-19
0
2.72259938283323e-16
5.52698430470527e-16
2.74105781463629e-16
0
3.13219740232215e-18
0
0
1.92756558563474e-19
0
6.2643948045757e-18
-1.66247698044153e-18
3.13219740231959e-18
-1.66247698044423e-18
-1.66247698042709e-18
3.32495396090615e-18
0
3.1321974023193e-18
4.79467438273864e-18
-1.92756558563472e-19
1.66247698044151e-18
-1.92756558563473e-19
-1.92756558563475e-19
0
1.92869686863886e-19
-7.77265937387961e-18
-1.69186967755953e-18
0
1.93281518307696e-19
-8.31965816761045e-18
-3.56579242943048e-18
0
2.21484907744498e-18
0
-1.97377155631743e-18
3.8776068771706e-19
4.23225354995477e-18
-2.7657885519827e-18
4.8952068983566e-18
0
7.63823403898621e-18
5.2195492565144e-18
0
8.42002572152211e-18
1.82691262332921e-18
0
4.85771485871947e-18
5.16906225871552e-18
4.83951591832038e-18
-3.60419704093836e-18
1.57351536655201e-18
-6.46812972272271e-18
1.48373360988824e-18
-6.46448771001648e-18
0
0
0
-9.12716002251778e-18
-1.92525994435795e-19
0
1.47361740678828e-18
8.00763944061683e-18
-8.36238363895572e-18
0
6.17371399464358e-18
0
0
7.15566961474622e-18
-1.9107120844632e-19
0
1.91248960287771e-19
-2.53276791333022e-18
0
4.17571114373112e-18
-6.73111564375575e-18
-1.9152638455873e-19
0
1.91269601250538e-18
5.71762938691724e-18
5.50537953527672e-18
0
0
3.5287916893826e-16
1.28227426941791e-16
1.10805560621491e-17
2.2312836665633e-16
0
0
6.08229197678404e-18
3.23554171877701e-18
3.47558917493518e-16
3.50258683306285e-16
4.46779885580944e-18
4.27504199456257e-18
0
-1.92756861203207e-19
0
7.51058371331152e-18
8.93559771159156e-18
6.08556971518566e-18
1.61777085939804e-18
0
-4.46779885583346e-18
0
-6.27832657643972e-18
-4.66055571694854e-18
2.30088174136519e-16
2.27881319120724e-16
0
1.61777085938319e-18
0
0
-1.92756861203214e-19
4.46779885576898e-18
0
-1.61777085939816e-18
-4.66055571699094e-18
-4.46779885579546e-18
1.23225713698903e-18
-3.23554171879629e-18
4.46779885578739e-18
0
1.92756861203215e-19
-1.92756861203207e-19
-1.9275686120321e-19
-1.92756861203208e-19
-4.66055571699092e-18
0
0
0
-1.61777085939564e-18
0
-4.46779885578699e-18
-1.61777085939553e-18
4.46779885579545e-18
1.9275686120321e-19
0
-3.23554171880808e-18
1.61777085939201e-18
0
0
0
-6.08556971512677e-18
0
6.08556971518654e-18
1.8105277206025e-18
0
-1.92756861203205e-19
-1.92756861203212e-19
1.92756861203213e-19
-2.85002799635937e-18
-1.92756861203206e-19
0
0
0
0
-4.66055571699056e-18
1.92756861203209e-19
1.61777085939089e-18
-1.61777085940529e-18
-3.50216188628722e-16
-3.48400457686439e-16
6.08556971514757e-18
0
-1.92870030654488e-19
3.05779021196045e-18
-6.00574200580503e-18
-1.67750918710869e-18
0
0
-1.63444564769118e-18
1.93576896657466e-19
-1.93666507642595e-19
-5.71965037855954e-18
-1.18638104418246e-17
8.31784160928001e-18
-6.15142999009261e-18
6.34815620111649e-18
6.35669759380121e-18
-1.94071508922784e-19
-4.68289505093507e-18
0
-2.34435353885645e-18
-8.1628943293394e-18
3.1748137353784e-18
1.94545210695808e-19
0
-6.36829488067171e-18
6.6403718912642e-18
-4.86780947909059e-18
1.7190606038516e-18
-2.94723481359771e-18
1.63178252283731e-18
6.09238400105386e-18
-3.23523181582044e-18
0
0
-1.92727692530897e-19
-2.95891678189624e-18
1.92216002605401e-19
-4.47722706315719e-18
3.14722308997087e-18
4.52827506508421e-18
-1.514044319247e-18
5.98035046400404e-18
-4.37524638188644e-18
-4.22576371082352e-18
-1.90966984764391e-19
2.76416548101691e-18
4.91873481408671e-18
0
2.26854347845726e-18
-6.56410514180755e-18
0
0
2.17836486906161e-18
-1.92106155144866e-18
-1.66184270058867e-18
3.57012125599433e-18
-1.71658953745838e-18
1.840612042244e-18
3.16863794228132e-18
-3.44679362306605e-16
-3.42412337898752e-16
-1.92326512296231e-19
0
1.58138693456345e-18
5.90431014346997e-18
0
1.92757173550988e-19
-3.41047674543521e-16
-3.33638419191727e-16
2.76335477534351e-18
2.95611194886604e-18
0
0
-3.85514347101957e-19
0
0
3.14886912243132e-18
-2.95611194888013e-18
0
0
2.76335477532912e-18
1.92757173550979e-19
5.71946672415486e-18
-2.9561119488832e-18
1.92757173550981e-19
0
-5.91222389770307e-18
2.76335477535812e-18
2.95611194888013e-18
0
-3.14886912241923e-18
0
-3.14886912243128e-18
-3.14886912243135e-18
-3.85514347101961e-19
0
0
0
0
-5.91222389776995e-18
0
0
-1.92757173550978e-19
0
0
0
0
2.95611194887549e-18
0
1.92757173550989e-19
0
0
0
5.91222389776034e-18
1.92757173550987e-19
1.92757173550979e-19
0
0
1.92757173550976e-19
0
5.91222389776025e-18
5.91222389776119e-18
9.06109302019931e-18
0
-8.67557867316376e-18
-2.95611194888014e-18
0
-2.9561119488506e-18
-1.9275717355099e-19
-1.92757173550984e-19
0
0
-3.14886912245288e-18
0
0
-2.57059760176446e-18
3.14886912244523e-18
3.38091562594647e-16
3.35981834535815e-16
2.9561119488616e-18
-5.90912255334607e-18
0
-5.94135017072179e-18
4.22681699576536e-18
-1.82545614896524e-18
1.93281926154572e-19
0
1.58431897114093e-18
-3.49098599701844e-18
1.52292347082151e-18
-3.57012125599406e-18
-3.90080044461749e-18
2.11494007370161e-18
-5.96051559177627e-18
-6.34496576061494e-18
-1.94019850133893e-19
2.38210527521542e-18
6.80563043511883e-18
-4.7169764508987e-18
7.57237720658023e-18
0
-2.50410902287786e-18
7.43202517109146e-18
0
0
1.70855531118881e-18
-1.89813796663896e-18
-1.47791786530547e-18
-6.1012791063636e-18
1.93291501725585e-19
0
0
0
9.6383969320625e-20
8.42241445764078e-18
0
-5.40849076586235e-18
0
2.67322175290229e-18
-1.65361542410368e-18
5.86699220175145e-18
0
-1.22178718683697e-18
2.72872281938715e-18
0
3.82143339460961e-19
-4.57390280210786e-18
-4.95234154482855e-18
4.39574841646493e-18
-6.93398414978972e-18
-4.29128963739696e-18
3.97324346753244e-18
3.85030151199239e-18
-1.91582885754098e-19
3.59220451970146e-18
0
5.18279841350276e-18
-3.38791176346015e-18
8.25467640986309e-18
-4.44180324122652e-18
4.1086150827274e-18
-5.96562333856728e-18
0
1.92538060170565e-19
5.54392552903259e-18
0
3.06485224827868e-18
0
-2.67933725645061e-18
0
0
-1.92757495922902e-19
2.87209475237375e-18
0
0
1.9275749592291e-19
0
-1.11028640176477e-17
0
-1.92757495922906e-19
-3.85514991845816e-19
0
1.9275749592291e-19
0
0
2.67933725645086e-18
0
0
1.92757495922901e-19
0
0
5.74418950476972e-18
2.87209475237375e-18
0
2.87209475237844e-18
0
0
-2.87209475237357e-18
0
1.92757495922908e-19
2.67933725645064e-18
2.67933725645085e-18
8.4235267611972e-18
0
1.92757495922909e-19
0
1.92757495922909e-19
-5.35867451289238e-18
0
0
-5.74418950473723e-18
3.06485224830139e-18
1.9275749592291e-19
2.67933725645049e-18
1.92757495922909e-19
0
0
5.74418950474705e-18
-8.42352676128038e-18
-1.92757495922907e-19
0
0
0
-2.8720947523472e-18
-2.87209475239733e-18
0
0
8.42352676111239e-18
-2.67933725645069e-18
0
0
-1.92757495922907e-19
0
0
0
3.06485224828293e-18
0
1.92757495922902e-19
-1.92757495922904e-19
0
0
8.41266194259527e-18
0
0
4.18572750024983e-18
-1.62689447460823e-18
-1.28722030310544e-18
-1.93479044119892e-19
-1.93576387004247e-19
-3.52099060530886e-18
1.93745062813094e-19
-5.58212237081258e-18
0
2.11908165640447e-18
1.93975385387762e-19
-2.43796477373763e-18
-6.74797611133767e-18
4.58987582210143e-18
4.95823348152822e-18
1.94273203558355e-19
0
-5.422347230466e-18
2.72872281924878e-18
5.65052626762111e-18
0
-4.40024415146515e-18
-4.58190310471507e-18
-3.25278197409226e-18
5.73254880515596e-18
8.69261154880324e-18
0
0
1.92757495922899e-19
0
0
5.58637123101002e-18
0
2.68459058098552e-18
0
-4.25113415526886e-18
0
5.61123219838488e-18
8.40035740800945e-18
1.3214915858061e-17
0
2.60556749811579e-18
4.80728263824954e-18
-2.21361040140928e-18
-1.93805074738738e-18
-1.91381967933038e-19
8.13607913975787e-18
2.11634598811428e-18
-5.97911330608861e-18
-1.99531882591085e-18
-2.12376947717706e-18
0
0
8.12808045462701e-18
-4.4658772671801e-18
-1.24318952886826e-18
2.77970996018385e-18
0
0
0
2.78698556363163e-18
-2.78917800289861e-18
0
-2.5978940871187e-18
1.92757828645694e-19
2.79065191577749e-18
0
8.17919791864739e-18
0
-2.59789408713883e-18
1.927578286457e-19
0
-1.92757828645691e-19
1.92757828645705e-19
-5.19578817418241e-18
-1.92757828645702e-19
0
1.92757828645698e-19
0
7.98644009000973e-18
-2.79065191576437e-18
0
-2.59789408709175e-18
0
0
2.79065191576456e-18
5.38854600286068e-18
0
0
0
1.92757828645697e-19
0
0
-2.98340974441027e-18
0
-2.79065191576872e-18
-5.38854600288307e-18
0
2.79065191576443e-18
-2.79065191576459e-18
-5.58130383152875e-18
2.79065191576419e-18
2.98340974441444e-18
2.59789408711449e-18
-5.58130383152876e-18
-2.79065191576444e-18
2.59789408711391e-18
5.3885460028924e-18
2.79065191576446e-18
-1.92757828645705e-19
0
0
2.79065191576456e-18
-1.92757828645702e-19
0
0
0
-5.38854600288264e-18
0
-1.92757828645705e-19
-1.92757828645697e-19
0
1.92757828645697e-19
0
5.58130383152831e-18
0
0
2.79065191573932e-18
2.79065191578465e-18
-2.59789408711873e-18
0
-1.92757828645692e-19
5.19578817426396e-18
0
-1.92757828645692e-19
-1.92757828645703e-19
-2.78920951748089e-18
0
0
0
-2.70547305336015e-18
-9.11225932209067e-18
-1.93380868756702e-19
0
-1.93576120130099e-19
-1.93665142933492e-19
0
7.15569937519067e-18
3.80134860137249e-18
-7.8492740281532e-18
-4.04370690943464e-18
-1.79214377574015e-18
4.10788849633503e-18
2.12937128483356e-18
2.60199734681728e-18
0
0
5.06381626537389e-18
5.48050418501834e-18
-3.8915865889381e-19
-7.01404024765819e-18
-4.06819872808567e-18
9.08532958297948e-18
0
2.87828124367136e-18
2.81511759413802e-18
0
-2.79033862403691e-18
5.38854600287999e-18
0
-2.03640807725995e-14
-2.03199110078301e-14
2.73414721960927e-18
1.91803710422708e-19
-1.92327497498333e-15
-1.89253846485158e-15
-2.56199150242082e-18
0
0
5.50152030604818e-18
0
4.67765054712602e-18
-2.42703172458307e-18
0
2.25428896655939e-18
-6.16127874159105e-18
-1.92434930759293e-18
3.92148721573998e-18
-5.9967461238572e-18
1.17300773707053e-18
-1.91649077442939e-19
8.50639382710614e-18
-6.2504948436985e-18
0
0
4.55843531021144e-18
5.58197513215313e-18
1.88807433650677e-16
1.96648309310108e-16
-1.92538632307793e-19
-2.515531008229e-18
-1.92742537713993e-19
0
-2.71170457947314e-18
-1.91799262966376e-16
-1.98098386693678e-16
-2.90446275151731e-18
1.92758172057031e-19
0
-2.51894640743522e-18
0
-5.23065098689852e-18
2.71170457947307e-18
-5.42340915894596e-18
-5.23065098683582e-18
-2.04779511349678e-16
-5.96660690556167e-18
2.08616377655058e-16
-2.90446275150551e-18
-2.71170457947533e-18
1.92758172057034e-19
1.94318209373805e-16
1.98400175655992e-16
-1.94318209375737e-16
-1.93370575632198e-16
0
0
0
-2.71170457947295e-18
2.71170457947316e-18
0
-5.4234091589369e-18
-2.90446275153001e-18
2.51894640741604e-18
-2.10202920506173e-16
-2.00544452501442e-16
-1.92758172057034e-19
0
0
0
2.71170457947291e-18
-2.51894640741578e-18
1.96837155781531e-16
1.93397683007841e-16
1.96451639437092e-16
2.01530200999439e-16
0
-5.42340915895487e-18
-5.42340915894629e-18
2.07491215927042e-16
1.97818552741821e-16
0
0
-1.9664439760915e-16
-1.9298505928951e-16
-2.51894640738999e-18
0
4.04328371708255e-16
3.90563053021597e-16
0
-2.02067806769803e-16
-2.03192968494801e-16
-2.71170457949942e-18
0
-2.71170457947284e-18
0
1.99356102188997e-16
1.9329827014263e-16
0
0
1.97029913953278e-16
1.9326731429394e-16
1.94125451202685e-16
1.95579440285556e-16
-2.71170457947294e-18
2.51894640739938e-18
-5.61340176965585e-18
2.07414369293017e-16
2.01011706240469e-16
-2.16791575695489e-16
-2.04163026714182e-16
1.93282587926694e-19
-1.93380963108771e-19
0
-1.93575844890387e-19
2.14361768904849e-18
0
-1.68654483867173e-18
-3.49551196971331e-18
3.80870703068073e-18
0
1.73033324465152e-18
-4.17399731608663e-18
-8.25187350386824e-18
2.33867728112998e-18
-9.13772827666124e-18
7.2108346644579e-18
-5.09923678026746e-18
0
2.45589143045554e-18
5.43512002366307e-18
0
5.49186871111989e-18
2.69045591889416e-18
0
2.54193082253045e-18
-1.92987775892422e-19
8.13419828932949e-18
-1.92758172057034e-19
9.63849998707367e-20
1.97263320466157e-14
1.96733923657305e-14
5.31340113582228e-18
-2.71443523813541e-18
1.88329193419695e-15
1.79898338710902e-15
0
-8.08747075941146e-18
5.13414331833163e-18
0
-2.3753109580724e-18
-9.0619030522474e-18
-8.85470830654072e-18
-6.42368941331665e-18
0
5.78384447837986e-18
0
-7.61086363829404e-18
-1.08902604156927e-17
0
-6.72873337707837e-18
1.57434228182254e-18
0
0
4.19611866395115e-18
2.69767761403661e-18
8.41459316454088e-18
-1.8795888459024e-16
-1.85939096876068e-16
-2.84020156168939e-18
0
0
1.92758526505986e-19
0
1.90828231023275e-16
1.87736009124024e-16
0
0
1.92758526505978e-19
0
0
-2.44241777378903e-18
-1.92758526505978e-19
-5.27035260058072e-18
1.92758526505979e-19
2.00983419173477e-16
-1.91315046475227e-18
-1.96248173407052e-16
-2.63517630026686e-18
0
0
-1.90828231023286e-16
-1.89916113960631e-16
1.88578571777882e-16
1.95566174920192e-16
0
0
-2.63517630030082e-18
-2.82793482679633e-18
-1.92758526505984e-19
-2.63517630029483e-18
0
0
2.63517630029052e-18
1.9590582509704e-16
2.01964884662892e-16
5.27035260058085e-18
-2.63517630029059e-18
2.63517630029038e-18
5.07759407407511e-18
5.2703526005808e-18
2.82793482679631e-18
-1.90828231023593e-16
-1.90515041495299e-16
-1.9063547249678e-16
-1.87505495586988e-16
2.63517630028618e-18
0
0
-1.98541001397626e-16
-1.94431204879514e-16
1.92758526505988e-19
5.07759407407514e-18
1.91213748076284e-16
1.8992415268916e-16
0
-1.92758526505987e-19
-3.86734056120644e-16
-3.86928286290533e-16
0
1.98733759925836e-16
1.99076108232626e-16
-7.71277037444203e-18
0
-2.63517630029037e-18
2.63517630029033e-18
-1.91020989550144e-16
-1.95124415001419e-16
-1.9275852650598e-19
0
-1.91020989549795e-16
-1.95094407538305e-16
-1.88385813250396e-16
-1.90178426897152e-16
2.63517630029056e-18
0
0
-1.97745064011281e-16
-1.93161132385625e-16
1.98573066856165e-16
2.0719594140726e-16
0
-1.93381060452295e-19
0
0
0
6.49111214881521e-18
0
-5.27434938115744e-18
0
7.61584793568995e-18
-1.47640272937921e-18
-1.73388345941339e-18
0
2.46586006124733e-18
9.05207616645605e-18
0
-1.94454531902174e-19
-2.67384688157272e-18
5.32871732448785e-18
1.0917957993317e-17
-8.58381270396042e-18
0
5.4088058393805e-18
2.52263152646195e-18
2.65777678409091e-18
0
0
0
0
0
4.93377240343822e-18
2.58162680234998e-18
0
1.91387392845169e-19
-1.91100052345582e-19
-2.77418709865121e-18
5.72568800474586e-19
0
-7.58545437869414e-18
0
-1.13540254912689e-17
2.28921922580765e-18
0
5.99994282929914e-18
0
7.41684143761225e-18
1.7507271194235e-18
-1.88826180545006e-18
-5.11425368350124e-18
-1.91648901571033e-19
0
-1.65949227188607e-18
1.91907052553755e-19
0
2.80728007729529e-18
-2.72514964440294e-18
0
0
-1.92539241821844e-19
1.82197428907322e-16
1.8613290857459e-16
0
0
7.29746114737715e-18
-2.36823408501977e-18
0
-5.12198595472265e-18
7.29746114737742e-18
4.92922706240564e-18
0
0
1.92758892353344e-19
1.92758892353343e-19
-1.92758892353347e-19
0
0
-7.49022003979194e-18
2.56099297733849e-18
-5.12198595472751e-18
0
-2.36823408500796e-18
1.00512130169951e-17
0
0
0
0
0
0
0
0
0
0
-2.56099297736136e-18
7.49022003971893e-18
1.92758892353343e-19
0
0
5.12198595472268e-18
0
-4.92922706236937e-18
2.56099297736132e-18
-1.92758892353341e-19
0
1.87558514639156e-16
1.86893273836268e-16
-1.92758892353344e-19
4.92922706237795e-18
0
0
0
-1.92758892353338e-19
0
0
0
-5.1219859546742e-18
1.92758892353345e-19
4.92922706236936e-18
0
0
-5.12198595476383e-18
-5.12198595472272e-18
0
0
5.12198595472269e-18
0
0
0
1.92758892353345e-19
5.12198595472239e-18
1.85190280554149e-16
1.81869056784943e-16
2.56099297737312e-18
-2.36823408500811e-18
-2.75375186971464e-18
0
-3.85549595174496e-19
5.11591172918148e-18
0
0
1.9318371001946e-19
-1.93283064992378e-19
2.6151626897806e-18
-2.71160377452271e-18
6.02818213693994e-18
-1.46768169470983e-18
0
6.52820934743708e-18
-1.02330890668258e-17
3.39347143908786e-18
5.2521813582682e-18
1.94013341242355e-19
3.73566383518873e-18
-1.9362073759028e-18
0
4.39036923634698e-18
0
0
5.19151285098363e-18
-7.65327320782993e-18
2.74403479871757e-18
2.97225632129689e-18
2.57764774863292e-18
2.72089534204647e-18
5.27808965619102e-18
0
2.75659954256727e-18
0
-2.5609929773602e-18
4.68903276423906e-18
0
0
-2.50885323026506e-18
-2.75405172765441e-18
0
2.68845348836771e-18
0
0
-4.81575371716526e-18
-2.32553513286891e-18
2.0372056860112e-18
6.75851754169037e-18
0
1.949569581859e-18
6.20114189533905e-18
-5.42867594439627e-18
-1.94148624907979e-18
-1.88768182792082e-18
0
-1.91582528386086e-19
1.72612922804458e-18
9.2539765860364e-18
-4.07533296756685e-18
5.46744387357118e-18
-8.46130803233176e-18
0
5.48797684125028e-18
0
1.9243314042423e-19
7.30993120442087e-18
-1.8003281225971e-16
-1.78141213459491e-16
2.68184205039093e-18
0
0
-2.29632351047299e-18
-1.79725087083462e-16
-1.78249336345351e-16
2.2963235104616e-18
0
2.48908278041194e-18
0
2.48908278043376e-18
2.29632351046181e-18
2.68184205038205e-18
1.84317734107111e-16
-3.17211191883195e-18
-1.78120087637983e-16
0
-2.48908278043611e-18
4.97816556086749e-18
-2.29632351046164e-18
0
0
0
0
1.92759269972121e-19
-2.6818420504156e-18
-7.27448907132951e-18
-4.97816556086747e-18
4.97816556087592e-18
2.48908278042968e-18
0
0
0
0
0
2.48908278043391e-18
0
0
-7.27448907132953e-18
-4.97816556086756e-18
0
0
-1.79339568544387e-16
-1.78715122944014e-16
0
4.78540629090347e-18
-2.48908278043374e-18
-2.68184205040604e-18
-1.92759269972113e-19
0
0
0
-2.48908278045687e-18
4.78540629084911e-18
2.29632351046167e-18
-1.9275926997212e-19
-4.9781655608722e-18
4.7854062908514e-18
1.81828651326342e-16
1.85972854518137e-16
-2.29632351048547e-18
2.29632351043777e-18
0
2.48908278043361e-18
0
0
0
0
-1.81635892054859e-16
-1.80894247121091e-16
-2.4890827804451e-18
1.92759269972121e-19
0
0
5.16845081950035e-18
0
0
0
1.93184065759281e-19
0
0
0
-2.92729690312345e-18
5.49586148536747e-18
1.93741553090396e-19
4.99106357612028e-18
-1.93872345226513e-19
8.60754776415502e-18
8.86894979241245e-18
0
-1.94061676998315e-19
-3.94557258830594e-18
8.18665110563501e-18
-4.25886096077907e-18
5.83056115657402e-19
-4.45634966583139e-18
0
2.40787685865489e-18
4.93854002888836e-18
-5.19910397955466e-18
4.99470653919494e-18
2.64281365621222e-18
2.56413499176685e-18
4.63327279932942e-18
0
9.76241359581352e-18
2.48908278043604e-18
4.54961897419717e-18
2.41904206026801e-18
-2.22877238695065e-18
2.24609240176755e-18
-2.2978294597497e-18
-7.31051406955135e-18
1.91100390371193e-19
2.42383344599779e-18
1.90857225135309e-19
0
4.69522126400726e-18
-6.85586451660653e-18
1.91073229781062e-19
-1.91167730772433e-19
5.66562248281314e-18
-1.6257792873782e-18
3.69752590686899e-18
1.88691214895789e-18
4.73856736517473e-18
1.40123570287457e-18
3.46411490551444e-18
1.91648714695748e-19
-5.92233949951825e-18
8.8462429707036e-18
-5.29917455235403e-18
8.21941384496648e-18
2.64975689844833e-18
0
7.33842683350726e-18
-4.7326672867369e-18
2.23822128829804e-18
0
2.61088924270006e-18
2.22661642054661e-18
0
0
0
1.80914448376898e-16
1.71122612397427e-16
0
-9.29198500180856e-18
4.83875216057582e-18
0
0
1.83333824458095e-16
1.92410878764692e-16
-1.74041839458085e-16
-3.67189957626365e-18
6.24100120094731e-16
4.46802211271576e-16
1.92759659747952e-19
2.22661642056107e-18
-2.41937608030887e-18
0
1.85367681220713e-16
1.85925721520414e-16
-1.92759659747952e-19
0
4.64599250088901e-18
2.22661642056109e-18
0
0
-4.64599250086202e-18
0
-1.92759659747949e-19
-2.41937608030552e-18
0
0
0
0
1.92759659747962e-19
-4.64599250087048e-18
0
-2.41937608031278e-18
0
-2.22661642056109e-18
-2.41937608030887e-18
-2.41937608030532e-18
0
0
0
0
-1.92759659747952e-19
1.92759659747954e-19
0
0
-4.8387521605732e-18
4.83875216061807e-18
0
0
-1.85560440876916e-16
-3.64248581523637e-16
-1.70653509842077e-16
0
-7.06536858110992e-18
0
-2.41937608030886e-18
0
0
4.8387521606523e-18
-1.92759659747952e-19
-1.92759659747955e-19
0
-1.92759659747953e-19
-4.45323284112225e-18
-2.41937608030904e-18
-2.61213574004235e-18
-1.92775582940042e-19
0
0
9.18608371994498e-16
8.82385439679538e-16
2.767316855635e-18
-7.75968104985938e-18
-1.93478572842348e-19
3.87149309910971e-19
3.14426240898947e-18
1.62639451121655e-18
-4.46060056703766e-18
1.7343462048531e-18
0
6.96133118823437e-18
0
-3.70020394417358e-18
3.82831799723031e-18
0
1.96856229482861e-18
2.25300221749585e-18
6.4739254253413e-18
1.94524018485426e-19
-2.72105519113486e-18
1.94561028291832e-19
-4.65317063332217e-18
-2.41952018713148e-18
-4.94016669561161e-18
2.68521086160819e-18
2.43938620263599e-18
4.84352356410423e-18
1.92789114596882e-19
0
4.51086370945782e-18
0
-4.7072375881168e-18
2.17770982058596e-18
-2.61104674806466e-18
0
-2.53517370137061e-18
0
-1.90857725811744e-19
-2.44915085937809e-18
4.5529882328293e-18
0
-5.98169233895334e-18
-1.71561283720838e-18
5.67940075635686e-18
3.52054261619373e-18
0
-1.64257661027031e-18
1.012901238072e-15
1.04490288800618e-15
0
1.44071251905848e-18
0
0
0
7.98493056576092e-18
0
0
4.68710948203178e-18
-4.59474946152652e-18
-2.36284567646281e-18
-2.15626261812997e-18
1.75483428812449e-16
1.7405154746907e-16
0
-2.15904531934217e-18
0
0
0
-1.66361880378494e-16
-1.62922132078267e-16
-2.35180538140127e-18
2.35180538142568e-18
4.70361076284318e-18
-1.86757088562974e-16
-1.79705840520617e-16
2.35180538144396e-18
0
-4.39442097082303e-16
-4.38085856413946e-16
-1.92760062079546e-19
1.68906445821997e-16
1.67959691607712e-16
-6.86265608212036e-18
-1.86371568440629e-16
-1.77401443184009e-16
-4.31809063868447e-18
0
1.92760062079542e-19
0
0
0
0
0
2.159045319342e-18
-1.92760062079539e-19
-2.15904531934544e-18
2.35180538142177e-18
0
0
2.15904531934217e-18
4.70361076284359e-18
-1.92760062079548e-19
0
-4.3180906386771e-18
-2.3518053814217e-18
-2.35180538142159e-18
-6.86265608217435e-18
-1.9276006207955e-19
2.54456544350131e-18
0
2.35180538143051e-18
-1.9276006207955e-19
2.35180538142175e-18
0
0
6.66989602004047e-18
-1.68520925697835e-16
-1.70176160427706e-16
0
1.79894432479115e-16
1.79534871475834e-16
-2.35180538142171e-18
0
6.86265608211886e-18
0
-2.35180538142163e-18
-6.66989602011803e-18
0
1.75383581781317e-16
1.67895524756828e-16
1.9276006207954e-19
0
0
0
2.35180538142163e-18
4.70361076281545e-18
-2.15787435072628e-18
-1.92873667216344e-19
2.17030544480431e-18
-8.51608481786096e-16
-9.00439319558514e-16
0
-2.57586006021955e-18
0
-1.93574333825766e-19
2.86546526119202e-18
0
0
4.67156103488474e-18
-7.90968540351228e-18
-3.37819788258485e-18
0
-8.87970217257848e-18
1.76027130803214e-18
-1.63520110252061e-18
0
6.17603949443034e-18
-4.17985934181951e-18
2.18104975299627e-18
0
-4.63235979671461e-18
-1.17388548299664e-17
-2.34407313426837e-18
9.58685507586576e-18
4.84226004609734e-18
-1.93294172658794e-19
-1.92989832937375e-19
-1.92789524279633e-19
2.15904531933958e-18
0
1.9273091236277e-19
4.19096438407741e-18
0
1.91803718653139e-19
0
2.46203980349953e-18
-7.01305865056802e-18
0
-4.37388272631846e-18
0
-1.25257758958495e-17
0
7.57874538575226e-18
0
-1.91320944003272e-19
0
-3.18259490816645e-18
-1.02832900295317e-15
-1.91186316061017e-15
-9.7773988734961e-16
0
5.57285755848632e-18
-5.37036583312485e-18
0
-1.92011909141617e-19
-7.31309638109481e-18
4.85995379310858e-18
-4.55036589842964e-18
0
1.92540583095461e-19
-1.92648099112329e-19
-1.59253343445337e-16
-1.55499120506219e-16
-4.57261051297219e-18
0
2.2863052564961e-18
-1.92760477379151e-19
-2.2863052564861e-18
1.65636438970968e-16
1.66594534128707e-16
2.47906573384556e-18
0
4.18708955821414e-18
-1.90078430172781e-18
-4.37985003554992e-18
0
0
0
-1.92760477379157e-19
2.47906573386736e-18
-1.57262259854527e-16
-1.60432613156951e-16
2.28630525646516e-18
-2.28630525650711e-18
4.76537099035115e-18
6.66615529207906e-18
2.28630525647739e-18
-6.66615529210558e-18
-6.85891576945803e-18
8.95246054856585e-18
6.85891576946929e-18
-2.28630525648243e-18
0
-2.2863052564861e-18
-2.28630525648276e-18
2.09354477911034e-18
4.37985003559336e-18
-1.9276047737915e-19
8.95246054856524e-18
-2.28630525648609e-18
0
-2.2863052564861e-18
0
-1.92760477379156e-19
0
-1.92760477379149e-19
0
0
2.67182621124437e-18
-1.9276047737915e-19
0
-1.92760477379151e-19
0
0
1.92760477379149e-19
2.28630525646517e-18
1.63735654669226e-16
1.65005223669923e-16
0
-1.9276047737916e-19
0
-2.28630525648627e-18
6.66615529214352e-18
0
-4.76537099035135e-18
0
0
-2.28630525646651e-18
-1.61256588936536e-16
-1.60245991715042e-16
0
-6.47339481466929e-18
6.858915769489e-18
4.5726105129725e-18
0
4.57261051294525e-18
-2.28519314212718e-18
0
2.10447073525706e-18
-2.32739608072378e-18
0
2.23775412159129e-18
2.30962043179315e-18
0
1.93574002646705e-19
1.07444341445186e-17
2.88430576564433e-18
0
1.63998969961903e-18
-1.49506424091635e-18
0
-1.97931221873137e-18
-1.02595595673802e-17
-2.09341346373896e-18
3.93244233858961e-18
5.54068295155976e-18
-4.25094738843943e-18
-6.65524034057654e-18
0
-3.89118495570949e-19
9.36167006273652e-18
2.27404161503611e-18
0
2.03447134782429e-18
4.70579284234554e-18
-1.93294556354272e-19
2.28847247693391e-18
1.92789947166591e-19
0
2.12643875642337e-18
-2.2224984447972e-18
1.92529107602529e-19
0
2.28486627878533e-18
1.91387431955773e-19
-2.39114806669289e-18
2.39350819294023e-18
-1.90858772222871e-19
1.92692140564144e-18
-4.28148648447411e-18
-3.92007964329966e-18
1.91074119659758e-19
7.34654823687495e-18
-1.52520632348858e-18
4.95536455015962e-18
-6.56655164240939e-18
1.54159049665586e-18
-3.82958711647553e-19
9.79991427503897e-16
9.05134535788177e-16
2.89685667099855e-18
1.91724266341598e-19
5.75430240895007e-19
2.60424293740955e-18
2.51243183390991e-18
2.43111203289097e-18
0
0
-6.59341082112083e-18
2.2331943591869e-18
4.24763990660022e-18
-6.47238532183893e-18
0
2.22281228314581e-18
0
4.4456245663117e-18
4.44562456627172e-18
0
4.25286366021861e-18
2.22281228316099e-18
0
-4.44562456629913e-18
4.25286366021901e-18
0
-1.92760906073086e-19
-2.03005137709375e-18
4.06010275414566e-18
0
0
4.25286366022266e-18
-4.25286366021854e-18
-1.92760906073082e-19
-1.92760906073084e-19
0
-4.25286366021896e-18
6.47567594336463e-18
2.22281228313759e-18
0
2.222812283146e-18
-2.22281228314604e-18
-4.25286366022567e-18
-2.22281228314226e-18
0
-2.2228122831458e-18
6.28291503728151e-18
0
0
6.28291503729122e-18
2.41557318921899e-18
0
-4.44562456629188e-18
0
6.47567594337414e-18
0
-4.44562456629158e-18
-4.44562456629163e-18
2.22281228314239e-18
0
-4.2528636602187e-18
-1.92760906073086e-19