/*--------------------------------*- C++ -*----------------------------------*\
| =========                 |                                                 |
| \\      /  F ield         | OpenFOAM: The Open Source CFD Toolbox           |
|  \\    /   O peration     | Version:  3.0.1                                 |
|   \\  /    A nd           | Web:      www.OpenFOAM.org                      |
|    \\/     M anipulation  |                                                 |
\*---------------------------------------------------------------------------*/
FoamFile
{
    version     2.0;
    format      ascii;
    class       volVectorField;
    location    "30000";
    object      grad(p);
}
// * * * * * * * * * * * * * * * * * * * * * * * * * * * * * * * * * * * * * //

dimensions      [0 1 -2 0 0 0 0];

internalField   nonuniform List<vector> 
21000
(
(0.195941038430682 0.00564700997719786 0)
(0.143415503839263 0.00323895498448861 0)
(0.136526072077275 0.0111629510116515 -1.36377237111317e-19)
(0.231001176643279 -0.00156755124070435 1.47194763739355e-19)
(0.190914331003721 -0.0166781620273987 1.18120672097574e-15)
(0.132621045566294 -0.0258987434788041 0)
(0.066199953209601 -0.0188244648813158 2.618106281112e-19)
(0.0375913394282626 -0.0115805183656793 -7.80792074783492e-20)
(0.0268492708478086 -0.00740307592479909 2.53607064162997e-15)
(0.0219554692633741 -0.00507998112598618 -2.47754111142833e-15)
(0.0195671300630183 -0.00398122292643535 2.93051969863625e-19)
(0.0171297253935363 -0.00292597260002929 -4.59574927806932e-15)
(0.0154791960328868 -0.00211336654453485 -5.35076175425523e-19)
(0.0143480636574667 -0.00152650861553655 2.0982611619567e-15)
(0.0135041905040899 -0.00108285036866882 -2.0135011155308e-15)
(0.012919509666379 -0.000749266317007459 0)
(0.012580934288784 -0.000538916321157049 0)
(0.0124192876600447 -0.000426914185007867 -1.80689341035189e-15)
(0.0124194294442675 -0.000437498542064569 1.75044066126093e-15)
(0.0123582224787641 -0.000466573528289346 1.66017071073177e-18)
(0.0122739864614527 -0.000503537704612207 1.60723818787e-18)
(0.0121028354882572 -0.000519286719211223 1.5851505467216e-15)
(0.0117967237092127 -0.000487631546339121 2.98901244434281e-18)
(0.0113272822948962 -0.000389860313051612 -1.43737105304378e-18)
(0.0106844157762809 -0.000212421593885197 0)
(0.0100006616898291 -9.607773221303e-06 -6.79989662687654e-16)
(0.00937215357698594 0.00014211297202693 -6.58327047431675e-16)
(0.00854927185864714 0.000311848197568857 2.48031217864451e-18)
(0.00787523013670632 0.000395999096720261 0)
(0.00662997285825091 0.000557878191331392 0)
(0.00603733608551785 0.000559799986793883 2.33298237947287e-18)
(0.00312440663048867 0.000896861999965653 1.47203165746953e-16)
(0.00232406573230522 0.00137383636119677 -8.60282403890276e-14)
(0.00394417207818765 0.00148579677160885 -8.75011725623787e-14)
(0.00441939632110118 0.00155464864600593 1.16154673851335e-18)
(0.00655174138651334 0.00153973804569022 -1.16154673851334e-18)
(0.00878909769928406 0.00147423329794482 1.16274368046801e-18)
(0.0118450224387173 0.0013494476870111 9.24187012279397e-22)
(0.0151058929097782 0.00119443280427722 1.17861068717512e-21)
(0.0187126418488209 0.00101716590605163 -2.33115297724321e-18)
(0.0224042060004373 0.000834163399822574 -1.74804871102292e-21)
(0.0261822193153136 0.00065166016707697 1.16805454778137e-18)
(0.0299370712853384 0.000476739478004197 0)
(0.0336538750276447 0.00031177966291687 -1.175058940917e-18)
(0.0372885496164735 0.000158800238028791 -2.90937340478501e-21)
(0.0408307245060402 1.79760330683666e-05 2.35912237397968e-18)
(0.0442617771245168 -0.000110698710875491 8.79949922559658e-14)
(0.0475741365266065 -0.000227793671294407 8.91442338618974e-14)
(0.0507570715148305 -0.000333845535374501 -1.18831939509922e-18)
(0.0538028894193547 -0.000429474817170356 -1.19647750185936e-18)
(0.0567023260632973 -0.000515197507469175 1.1964775018727e-18)
(0.0594468042304861 -0.000591480698582836 -6.02769916590267e-19)
(0.0620271515111346 -0.000658700422692736 -8.99803901738689e-14)
(0.064434616667672 -0.000717180618186345 -9.10107907104877e-14)
(0.0666606290812207 -0.000767195695567534 -6.07703394954632e-19)
(0.0686972982270175 -0.000808994091659488 0)
(0.0705376414054368 -0.000842811740975852 0)
(0.0721760736496039 -0.000868900931768323 8.98046419385611e-30)
(0.0736085435311134 -0.000887519513764455 -9.02186632250639e-30)
(0.0748325950897314 -0.000898952453486346 0)
(0.0758473946206903 -0.000903507535110852 0)
(0.0766538453906797 -0.000901524282594157 3.15145834756826e-19)
(0.0772545924829873 -0.00089336947884132 -3.15145834755679e-19)
(0.0776539640688203 -0.000879435776403202 3.1816745157458e-19)
(0.0778578791579835 -0.000860137214308885 -3.18167451574537e-19)
(0.0778737250286086 -0.000835904409435806 9.5751239712457e-14)
(0.0777102030487652 -0.00080717882713896 4.84754389888421e-15)
(0.0773771588397626 -0.000774406841847984 -9.2071640341341e-14)
(0.0768853950326951 -0.000738033738161637 8.10575568005944e-20)
(0.0762464814227416 -0.000698497822237903 0)
(0.0754725607007097 -0.00065622512490701 0)
(0.0745761609573 -0.000611624295455735 8.25360025411553e-20)
(0.073570016056986 -0.000565082480389915 -8.2536002550741e-20)
(0.0724668992631939 -0.000516961522929948 0)
(0.0712794687799091 -0.000467595088356015 0)
(0.0700201396407925 -0.00041728615672601 0)
(0.0687009563053549 -0.000366305661102156 0)
(0.067333515934209 -0.000314890708569655 0)
(0.0659288552132335 -0.000263244946621249 0)
(0.0644974518612619 -0.000211536341289416 0)
(0.0630490796503203 -0.000159900481038887 0)
(0.0615929570763184 -0.000108434838636464 0)
(0.0601374490912889 -5.72091020079454e-05 0)
(0.0586905445586666 -6.24800413130081e-06 0)
(0.0572591041507007 4.44394291576183e-05 0)
(0.0558501208839497 9.49088566478788e-05 1.04240847105101e-13)
(0.0544687958071551 0.000145201075447796 2.08432885592814e-13)
(0.0531216659943348 0.000195473709381549 1.04137098296904e-13)
(0.0518118566062861 0.000245792414820829 0)
(0.0505465361652921 0.000296467429653784 -1.40798745785475e-18)
(0.049325657453581 0.000347530572202782 1.40798745783948e-18)
(0.0481592045626781 0.000399554933681758 1.41559354251774e-18)
(0.0470413078330704 0.00045239967453288 -1.41559354250495e-18)
(0.0459892042484926 0.00050713558655155 0)
(0.0449852008070808 0.00056312940429092 0)
(0.0440630100568523 0.000622433978972809 -1.42979991415446e-18)
(0.0431796888103559 0.000683196449163209 2.86296884747261e-18)
(0.0424049882707178 0.00074949040383379 -1.43316893332084e-18)
(0.0416413371421971 0.00081656670696885 1.43972649980754e-18)
(0.041036107604856 0.000892812880330947 -1.43972649983312e-18)
(0.0403739941273711 0.000966694697762394 1.44607837961578e-18)
(0.0399671134121272 0.00105619728674406 -2.89527512285838e-18)
(0.0393521269634366 0.00113405099100903 2.90146386686331e-18)
(0.0391845721020229 0.00124007180763515 -1.45226712364275e-18)
(0.038496695981101 0.00130927981475404 0)
(0.0385989313547731 0.0014309751159979 1.46133968138368e-18)
(0.0376214842227352 0.00144586133039818 2.93535004101623e-21)
(0.0372814471453325 0.00171910737213348 -1.46327021740148e-18)
(0.0381103599901373 0.00273232940820322 2.9361444109659e-18)
(0.039124204877146 0.00403201514328005 3.75727745333484e-16)
(0.0416531031629785 0.00552268397336391 0)
(0.0435993405155323 0.00698612956589105 7.88407937431264e-16)
(0.0458805733690705 0.00852437770205727 0)
(0.0473265697047281 0.00980994058963697 8.42728102119986e-16)
(0.0483121769853583 0.0108385587790208 8.73144982950169e-16)
(0.0480769448040683 0.0112128585746721 1.82409014360037e-15)
(0.0458706019319243 0.0105309154596325 -3.81029184811683e-15)
(0.0412837878825726 0.00862516570594265 0)
(0.0340013734688497 0.0053945256693822 -2.06719653818184e-15)
(0.0241247607702886 0.000959733084458692 0)
(0.0116175849357025 -0.00456722929372174 0)
(-0.00257089158785549 -0.010560504286332 2.28980945908036e-15)
(-0.016500344466675 -0.0163116677174253 2.30888065122227e-18)
(-0.0306521922624138 -0.0223440217003851 0)
(-0.0476754923109755 -0.0297983514175332 0)
(-0.0674099522243316 -0.0386860657850563 0)
(-0.0948191804845726 -0.0512636543001847 0)
(-0.131553196089067 -0.0685134233856041 -6.29312641874611e-19)
(-0.19341627708282 -0.0971599624332238 2.93550717542011e-15)
(-0.293329320559114 -0.139608130754139 -3.02298635334812e-15)
(-0.427213242539097 -0.191422618102504 0)
(-0.604199915757248 -0.252478270111719 2.50160075171477e-18)
(-0.837019841729981 -0.319332486622697 -8.76727344995053e-20)
(-1.1051139874012 -0.367455610069931 -2.77347287914307e-15)
(-1.29130643601384 -0.335414663947278 2.49540966007973e-15)
(-1.03619636803135 -0.149454639243484 1.30311305574657e-19)
(-0.294189292592996 0.0322683578833069 -5.07081508298627e-16)
(0.164242021041794 0.0607000565147258 2.54090309338688e-16)
(0.365459121179084 0.0402300623456521 -6.2430472703713e-20)
(0.323192954312832 0.0146922867794813 0)
(0.195318069552025 0.0120500068321845 0)
(0.143720891011856 0.00798083453095325 0)
(0.137061091699254 0.0219136837026594 0)
(0.229482872265854 -0.00164796317705378 5.51105999940579e-16)
(0.18475513565325 -0.0305861915515539 0)
(0.120769013104709 -0.0489715407348222 0)
(0.0559760636922559 -0.0363007022754038 2.46634988392624e-15)
(0.0303933463121926 -0.0224810239325507 0)
(0.0219082714552321 -0.0142031127654202 8.60396363853511e-21)
(0.0185212699891991 -0.00950095725292336 4.80019987475972e-15)
(0.0169794578800583 -0.00721308285141265 -2.83865511085128e-19)
(0.0154227962747126 -0.00511201628673619 2.22648752180159e-15)
(0.0144490341916383 -0.00349210456992253 -2.12314442127656e-15)
(0.0137912317852697 -0.00232005965530383 2.02981961807455e-15)
(0.0132957597850725 -0.00143192939532753 1.95174581844262e-15)
(0.0129657453711757 -0.000757663882880872 1.87578713498602e-15)
(0.012792236364235 -0.000312313517165788 -1.81127389647437e-15)
(0.0127242472494507 -5.21195205442905e-05 -1.71201473581952e-18)
(0.0127423244783353 -1.97569442685004e-05 -1.13698905172073e-21)
(0.0126835263832531 -3.6867206787728e-05 1.60869418121715e-18)
(0.0125902357157624 -7.67785636438635e-05 1.55745699268877e-18)
(0.0124138802539913 -9.14612215201094e-05 -1.54212723587052e-15)
(0.0121180554564865 -3.59744330689039e-05 1.44787684981116e-18)
(0.0116796886109491 0.000123392183630825 0)
(0.0110836394068957 0.000415095235090063 -1.37125134342176e-15)
(0.0104253312057864 0.000751585351749055 -6.59147462308116e-16)
(0.00978158102006856 0.000996623330942674 -2.48392188136102e-18)
(0.0089266546659943 0.00126136833485746 -6.97453893408877e-14)
(0.00818837436815675 0.00137678751300187 1.10755657944644e-15)
(0.00687851140132258 0.00161003772421796 7.34450041102506e-14)
(0.00620659774218176 0.0015928516032181 -2.26114779726495e-18)
(0.00327403857559549 0.00211703266243212 -2.24765938230709e-18)
(0.00240679439582752 0.00295781618539976 8.47907187676609e-14)
(0.00397859107895545 0.00335299613903535 8.34776012434775e-14)
(0.00444353612606898 0.00347396582027723 0)
(0.00657514290253043 0.00357209598528865 0)
(0.00880654525667581 0.00354866404592558 0)
(0.0118591241155659 0.00346584496901663 0)
(0.0151163749935687 0.00332113439192249 -8.21321746370586e-30)
(0.0187209796053329 0.00314772855271255 1.13085594452514e-18)
(0.0224107195276586 0.00295486900393936 -1.13085594453415e-18)
(0.0261875167110122 0.00275702298964669 1.13453156757459e-18)
(0.0299413011691326 0.00255916854367244 -1.13453156758774e-18)
(0.0336571823317616 0.00236581515091187 0)
(0.0372909107580556 0.00217787860119321 0)
(0.0408321004814253 0.00199570724050993 0)
(0.0442620852675276 0.00181855306002903 -8.61834681211079e-14)
(0.0475733031254152 0.00164560108996473 -8.55662790070776e-14)
(0.0507550294914582 0.00147590370995194 0)
(0.0537995956189794 0.00130870425509665 0)
(0.056697761375634 0.00114341440239687 7.47998669150684e-14)
(0.0594409779683068 0.000979690099380134 7.57179660445115e-14)
(0.0620201000111691 0.000817397607012352 8.78949041363984e-14)
(0.0644264023880163 0.000656605389231125 8.7590193159673e-14)
(0.0666513380463043 0.000497546427215968 5.89225658586198e-19)
(0.0686870378005643 0.000340592569232625 0)
(0.0705265364831613 0.000186215094867864 0)
(0.0721642643490498 3.49257999475251e-05 -8.70723300864142e-30)
(0.0735961817339635 -0.000112691175070954 8.74737547493587e-30)
(0.074819839839445 -0.000256029050078611 0)
(0.0758344087557063 -0.000394492750237864 -6.0822007740245e-19)
(0.0766407920401622 -0.000527512310633524 9.13779256467134e-19)
(0.0772416321673251 -0.00065455441078162 -3.05559179062517e-19)
(0.077641251724311 -0.000775135681937087 0)
(0.0778455616123436 -0.00088883110708652 0)
(0.077861938802718 -0.000995280518906507 -9.30006895518841e-14)
(0.0776990725667313 -0.00109419246673837 -4.42082724074167e-15)
(0.0773667950397165 -0.00118534594043941 8.91537337989715e-14)
(0.0768758943922577 -0.00126859013507737 -9.1704516790404e-30)
(0.0762379253672032 -0.00134384252120218 0)
(0.0754650153910194 -0.00141108561834177 0)
(0.0745696774128327 -0.00147036237227431 9.29567811535756e-30)
(0.0735646305742425 -0.00152177094988707 0)
(0.0724626341050046 -0.00156545855668813 0)
(0.0712763330765593 -0.00160161487728295 0)
(0.0700181304519332 -0.00163046525500953 -3.25528642934962e-19)
(0.0687000598263533 -0.00165226371967257 3.25528642934961e-19)
(0.0673337087739831 -0.00166728596656691 0)
(0.0659301057539824 -0.00167582236411025 6.58694837471788e-19)
(0.0644997215963523 -0.00167817124547866 -6.58694837470623e-19)
(0.0630523245819558 -0.00167463208320616 -6.63518399791174e-19)
(0.0615971289988054 -0.00166549939237016 6.6351839979403e-19)
(0.0601424969523553 -0.00165105580584901 6.68122157158474e-19)
(0.0586964156166499 -0.00163156703072193 -6.68122157161251e-19)
(0.0572657452472127 -0.00160727385101366 0)
(0.0558574795070588 -0.00157838927579136 -1.00363809480853e-13)
(0.0544768211753357 -0.00154508640698298 -2.02044707444328e-13)
(0.0531303101944448 -0.00150750176749312 -1.01719461068938e-13)
(0.0518210750416776 -0.00146571213061124 3.91937554077749e-21)
(0.0505562897346655 -0.00141975574543177 -1.36129753268272e-18)
(0.0493359105347623 -0.00136957488591754 -1.36885266436172e-18)
(0.0481699313348365 -0.00131509898145241 1.36885266438747e-18)
(0.0470524826228449 -0.00125607556635035 0)
(0.0460008204413589 -0.00119234831082381 0)
(0.0449972380930536 -0.0011233602310614 0)
(0.044075490432231 -0.00104900816863223 0)
(0.0431925819228699 -0.000968201458493137 0)
(0.0424183600976141 -0.000881288755844869 0)
(0.041655107988167 -0.000786221168809157 0)
(0.0410504095183385 -0.000684716964404369 0)
(0.0403886250084419 -0.000573124516254699 0)
(0.0399822933077145 -0.000456089198789375 0)
(0.0393674092368652 -0.000327941480874851 0)
(0.0392000443670166 -0.00019805189321143 0)
(0.0385116164408179 -6.36354671648677e-05 0)
(0.0386113599325171 6.5725163154532e-05 0)
(0.0376524964324321 0.000158155889405468 -2.83940523074515e-18)
(0.0374120214678347 0.000485325826785601 2.55615829976966e-17)
(0.0383561591867276 0.00227846744393975 0)
(0.0392908072327757 0.0045024418688525 0)
(0.0415464510595628 0.00703580412061864 7.46643085435407e-16)
(0.0430678133988435 0.00952626510217021 -7.64373192942997e-16)
(0.044734574584751 0.0121542206388233 -7.8743794505358e-16)
(0.0454659236199965 0.0143649727898774 8.15413039277483e-16)
(0.0456745463072103 0.0161388563537382 0)
(0.0447834936475931 0.0167916431024643 -1.76974320890467e-15)
(0.0423619863516232 0.0156516284776782 -1.05163308011335e-19)
(0.03822255931661 0.0124382064470788 1.88218692119412e-18)
(0.0321951776461705 0.00698391746653154 -3.91220671823196e-18)
(0.0243841790302656 -0.000527851096009523 4.06040616812144e-18)
(0.0147142112184724 -0.00990241268614533 -2.10091058232585e-18)
(0.00379092224905937 -0.0200917786701958 -2.22062868333221e-15)
(-0.00688916892856104 -0.0299791022888826 2.28951696518629e-15)
(-0.0175157563568826 -0.0405796578885318 1.15301092784435e-18)
(-0.0299724023757051 -0.0538795507183685 -1.19551378831528e-18)
(-0.0439772463885353 -0.0700447177456648 2.533416486841e-15)
(-0.0629585216530069 -0.0931716115982754 2.62965411613611e-15)
(-0.0876789697537123 -0.125448634070705 -2.73438339134665e-15)
(-0.129049858098181 -0.17924102091641 0)
(-0.198395460374699 -0.259149653103809 0)
(-0.296447628567191 -0.357786971716413 0)
(-0.435922921356596 -0.475156591944043 2.95315419934039e-15)
(-0.636574804772162 -0.603326334669809 4.46297674515778e-20)
(-0.898474245576705 -0.691520254785097 0)
(-1.1334267375272 -0.617417071112753 -1.20845567479884e-15)
(-0.980921005151513 -0.24611316335445 0)
(-0.294688426404648 0.0968838537340643 4.91614593855627e-16)
(0.158910724280222 0.134122899965649 -1.80291996975683e-19)
(0.362712966030336 0.0848743907268027 6.05558868732791e-20)
(0.321393681227159 0.0336936848369129 0)
(0.194623336694285 0.0155718542251563 0)
(0.144019219353276 0.0116132336442101 -6.34100806576291e-20)
(0.136932721485446 0.0232272686660937 -6.47198916247813e-20)
(0.229218978676945 0.00363889265234879 -2.07439623677404e-21)
(0.186264459151307 -0.0225616937913733 1.34559138988702e-19)
(0.124580491121715 -0.0411807582152952 -1.16207798926565e-15)
(0.0592747760355838 -0.0323772699913599 -2.38904516265497e-15)
(0.0322770963964151 -0.0209118551002342 -7.3267113007893e-20)
(0.0229921731102636 -0.0134355826261593 -1.33585026181727e-19)
(0.0191745561625697 -0.00904218592789829 -2.32502822955223e-15)
(0.017452631789764 -0.00686656533490764 0)
(0.0157509874464194 -0.00490695183779326 -2.1566685916587e-15)
(0.0146616203542855 -0.00337939574219171 5.29818049732887e-19)
(0.0139204947968505 -0.00227156213752693 -1.57758319615274e-20)
(0.013368966183465 -0.00142761822256126 1.88907232640735e-15)
(0.0129931183591354 -0.000788264019278866 -1.81829778196483e-15)
(0.0127885589351418 -0.000360222533091587 1.75496114646889e-15)
(0.0126944937311005 -0.000109327987349427 -1.69641496614491e-15)
(0.0127011798819873 -7.40401973619332e-05 -3.2161888232017e-18)
(0.0126359722781327 -9.40084790443751e-05 1.55879449647416e-18)
(0.0125396230812355 -0.000138276180066703 1.54489946630861e-15)
(0.0123628224380286 -0.000160994846968864 -1.45704303232148e-18)
(0.0120684654943258 -0.000118385680281422 1.44014757619004e-15)
(0.0116339073981032 2.35247998774261e-05 1.35194324079602e-18)
(0.0110402134813819 0.000295004670196631 1.32389923446829e-15)
(0.0103791989589151 0.000615981913038416 6.38931269866485e-16)
(0.00974032769363956 0.000860877922049884 -1.07321669671808e-13)
(0.00888923870308115 0.00112876792120172 -3.96647146014702e-14)
(0.0081653556361223 0.0012676665470606 -3.72607088581115e-15)
(0.0068631816708313 0.00152237367914009 -6.98881762685979e-14)
(0.00622285892895454 0.00158174201628456 2.78487537769749e-16)
(0.00333736407772233 0.00219117685714694 0)
(0.00247242812596789 0.00286540190257427 -1.74490644271769e-17)
(0.0040137598020952 0.00325410705777745 0)
(0.00446155194437848 0.00330380025668092 -1.05889643207133e-13)
(0.00659263977856247 0.00332275957642504 -1.07644497603875e-13)
(0.00881716082837609 0.00322391009706466 -1.09313804510501e-18)
(0.0118671572916687 0.00307829896698136 2.18714613905295e-18)
(0.0151212045649054 0.00288380011998141 1.10862160533925e-21)
(0.0187245475588018 0.00267398625938703 -2.19160623431165e-18)
(0.0224131370550725 0.00245549311891576 -1.64323468395221e-21)
(0.0261894369248109 0.00224109484317663 1.09813275342283e-18)
(0.0299427181091012 0.00203327073588905 -1.10224812130265e-18)
(0.0336581927563024 0.00183511416885308 1.10224812130055e-18)
(0.0372913985685502 0.0016461296362178 0)
(0.0408319855910557 0.00146597323313099 0)
(0.044261240135988 0.00129333408564584 0)
(0.0475716331418467 0.00112718844625847 0)
(0.0507524489909991 0.000966447832996345 -1.12089720689647e-18)
(0.0537960523566002 0.000810344062235583 1.12089720687537e-18)
(0.0566932278605745 0.000658280228132348 -7.31487609948669e-14)
(0.0594354573565381 0.000509922642222518 -7.2790572603882e-14)
(0.0620136212542194 0.000365116136841134 0)
(0.0644190198848081 0.000223884844215014 0)
(0.0666431278250749 8.63829663715578e-05 0)
(0.0686780947653071 -4.71274632287157e-05 0)
(0.0705169688167525 -0.000176347088044229 0)
(0.07215419290142 -0.000300975527904967 -5.81503028999212e-19)
(0.0735857396312344 -0.00042064520484649 5.81503029004259e-19)
(0.0748091659284884 -0.000534963877616258 0)
(0.0758236435109351 -0.000643593655219146 5.89722398198332e-19)
(0.0766300758387179 -0.000746220935269852 -2.93456652313781e-19)
(0.0772311025063784 -0.000842570440101327 -2.96265745884536e-19)
(0.0776310407486388 -0.000932411360981507 0)
(0.0778357939725541 -0.00101556150400956 -3.00530848538884e-19)
(0.0778527298254334 -0.00109188919775648 4.51509751166162e-19)
(0.0776905267668851 -0.00116131369159619 -1.50978902628263e-19)
(0.0773590049905974 -0.00122380409373407 0)
(0.0768689399363039 -0.00127937703449328 -3.8276077643228e-20)
(0.0762318731658559 -0.00132809372282934 3.8276077643228e-20)
(0.0754599187898225 -0.00137005583296807 3.86236210465684e-20)
(0.0745655765904761 -0.00140540134016198 -3.86236210465676e-20)
(0.0735615529472897 -0.00143429962410415 0)
(0.072460594963966 -0.00145694658656275 -1.56516051933079e-19)
(0.0712753363868951 -0.00147355934426216 4.70854555974637e-19)
(0.0700181698253035 -0.00148437149423651 1.28335766743736e-21)
(0.0687011195591575 -0.00148962745730444 1.25921755406854e-21)
(0.0673357650496708 -0.00148957849826805 -3.1688107926356e-19)
(0.0659331277414738 -0.00148447614557735 0)
(0.0645036728360004 -0.00147457043673683 0)
(0.0630571639111179 -0.00146010023343497 6.43323614765488e-19)
(0.0616028122495452 -0.00144129731618263 2.25822644703255e-21)
(0.060148977288241 -0.00141836742689233 -6.45581841209779e-19)
(0.0587036460489914 -0.00139150981020422 0)
(0.057273677457885 -0.0013608731208346 0)
(0.0558660685983195 -0.00132661481267592 0)
(0.0544860207707843 -0.00128879230403002 0)
(0.0531400827898978 -0.00124752305452921 0)
(0.0518313781880499 -0.0012027169040411 -1.31986309968414e-18)
(0.0505671000413417 -0.00115447964199957 -3.70736200160876e-21)
(0.0493471886039002 -0.00110246779302305 1.32357046167254e-18)
(0.0481816781119769 -0.00104686925501464 1.33072085818499e-18)
(0.0470646549662179 -0.000986874371562693 -2.66489229415867e-18)
(0.0460134617751168 -0.00092299813487243 2.6717163808542e-18)
(0.045010280386479 -0.00085352833409353 -2.6783898495677e-18)
(0.0440890552329532 -0.000779905913763048 1.34084490475592e-18)
(0.0432065244207821 -0.0006985942802852 1.347245040707e-18)
(0.042432951399573 -0.000613343394704606 3.11100125390347e-21)
(0.0416700072075287 -0.000516873760510931 -1.35035604194771e-18)
(0.0410661798863058 -0.000418310488832924 0)
(0.0404044812610399 -0.000302681497292969 0)
(0.0399993635752258 -0.000190907481963682 0)
(0.0393839632888891 -5.25301404629419e-05 0)
(0.0392181116846119 6.67560807065653e-05 -2.73615906430797e-18)
(0.0385278706064207 0.000226256864247205 1.34973413707657e-13)
(0.0386287565171849 0.000336073021504495 1.33096989501845e-13)
(0.0376736443231605 0.000520493186186149 -2.74747264750809e-18)
(0.0375045557092602 0.000529961246488589 -2.47889444000656e-17)
(0.0385515150579773 0.00215755016207182 2.75462777196231e-18)
(0.0395716476790142 0.00410395664028311 -2.78434854717457e-18)
(0.0419108642318773 0.00647734192052932 -7.21089972467819e-16)
(0.0435308292108699 0.00881402779922579 2.89847513886733e-18)
(0.0452887239276679 0.0113199317537123 7.63402623434924e-16)
(0.0460921645942667 0.0134215249484442 -1.58096015249857e-15)
(0.0463464079787275 0.0150914443550948 -3.20739265936576e-18)
(0.0454217040288275 0.0156761984096056 3.35466367447281e-18)
(0.04286732825363 0.0145423114852666 -5.33849163024859e-18)
(0.0384952320169219 0.0114311079685624 1.82048632315254e-18)
(0.0321235765578445 0.0062156464963932 -1.93945567950716e-15)
(0.0238704013224301 -0.000917867078459964 -2.01673221112422e-15)
(0.0136750699311297 -0.0097375123546339 2.0851482034347e-15)
(0.00225026682563934 -0.0192805829688615 2.15168663667596e-15)
(-0.00889918734783335 -0.0285691114091853 -4.4343550380993e-15)
(-0.0201172974470237 -0.0386018777212427 -1.12156461445598e-18)
(-0.0333951487820596 -0.0511794976301399 -2.36981401968941e-15)
(-0.048486247570546 -0.0665358026216875 -4.90833335042778e-15)
(-0.0691969051897878 -0.0884245024999963 -2.54759555042661e-15)
(-0.0965944761501727 -0.119069837832491 0)
(-0.142898595072018 -0.169354402326712 -6.66869311673514e-19)
(-0.219542217500099 -0.242570610434801 3.54181567927702e-19)
(-0.326885873738082 -0.330980651602947 3.54119310474228e-19)
(-0.478144352500687 -0.432831822369541 2.85180057177052e-15)
(-0.692527788168475 -0.536186746928148 1.25078185135289e-19)
(-0.965103480671368 -0.586841489579855 -2.58873295855366e-15)
(-1.19470793752499 -0.471009595014728 -1.16638522931215e-15)
(-1.01365608160226 -0.0954278820779975 -1.02676163974426e-15)
(-0.302623926741702 0.185375776962594 4.76935425113603e-16)
(0.155788506595514 0.159666279464501 1.1608427550521e-19)
(0.359923536729973 0.0885658409793176 3.03126608404904e-17)
(0.319484365791628 0.0374337785433337 0)
(0.193954226000715 0.0203083624812655 0)
(0.144207320610231 0.0149096346966312 -1.22971380092817e-19)
(0.136729837457821 0.0243277981535621 -2.52164799864818e-16)
(0.228189101462539 0.00462163192834391 0)
(0.18608885053027 -0.0196087591672772 0)
(0.12657023445918 -0.0368569632678059 2.25226805511083e-15)
(0.0617590613298244 -0.0295320756635367 2.31490235064203e-15)
(0.0337782131856608 -0.0197505272471007 0)
(0.0238101160700232 -0.0129631722213818 -2.30518692276878e-15)
(0.0196300245247509 -0.00880837913570722 -2.75080238248238e-19)
(0.0177574037013062 -0.00671229739976296 2.65681972372239e-19)
(0.0159803256899989 -0.00481406077382025 2.08856954473718e-15)
(0.014821683922301 -0.00332703153874843 1.99338976919752e-15)
(0.014031163620982 -0.00224401125771263 -1.90692712686284e-15)
(0.0134452965797747 -0.00141777065444696 -1.830179433167e-15)
(0.0130390537317556 -0.000793933554120484 0)
(0.0128094676590128 -0.000375706855191492 1.66109414257596e-18)
(0.0126936752107486 -0.000128840322375385 -3.22061190078674e-18)
(0.0126885836467723 -9.11366508244732e-05 -1.06892218740342e-21)
(0.012618914123258 -0.00011083677149819 1.51042374812665e-18)
(0.0125212978364128 -0.000156202375126167 -1.4955443918969e-15)
(0.0123478820462665 -0.000180254490818423 1.443941956871e-15)
(0.0120609325279235 -0.000139459956424891 -1.39021234868865e-15)
(0.0116369558052999 -1.42483717548409e-07 -1.34303029282184e-15)
(0.0110504078195002 0.000266565222510972 2.51685727840222e-18)
(0.0103872103970791 0.000583183640958823 1.45826625755664e-21)
(0.00974958751496596 0.000834572853797685 1.0621430420099e-13)
(0.00889503038427689 0.00110425638055487 1.03203230205847e-13)
(0.00817700786799181 0.00126611398626854 -5.6130671140021e-16)
(0.00687000253704081 0.00151050169687484 -2.15559895062639e-18)
(0.006254234227118 0.00164243065660322 -2.72144808186714e-16)
(0.00338306838072132 0.00221006425486683 -1.35243132146614e-16)
(0.00252008911553634 0.00265102014402266 -1.90344195262993e-17)
(0.00404167879193607 0.0029401005816638 2.11644097144769e-18)
(0.00447101281622438 0.00293468330556324 1.04352983248809e-13)
(0.00660096618578052 0.00284253194225433 1.02687294409319e-13)
(0.008820882150661 0.00267694817569502 0)
(0.0118700889172724 0.00247057308314124 2.12153020761635e-18)
(0.0151231143352592 0.00224592034065686 -2.12153020762734e-18)
(0.0187267736822846 0.0020197775802132 0)
(0.0224155499909716 0.00180176745099915 0)
(0.0261922350389077 0.00159650789481229 0)
(0.0299456368494736 0.00140499889230183 0)
(0.0336610834284095 0.00122658289713988 0)
(0.0372940099830579 0.0010595686776189 0)
(0.0408341420482371 0.000902211791525649 0)
(0.0442627710948458 0.000752796683305492 0)
(0.047572423063934 0.000609975138754246 -1.08322504617772e-18)
(0.0507524104546134 0.000472680212197647 1.08322504618736e-18)
(0.0537951376129385 0.000340195506653928 0)
(0.0566914170430674 0.000212056499899943 0)
(0.0594327594554246 8.80355910012697e-05 -1.09890808154279e-18)
(0.0620100681204254 -3.19328273046971e-05 -4.40702628863395e-21)
(0.0644146649964019 -0.000147779915672243 1.10331510781999e-18)
(0.066638042691193 -0.000259336874769877 -5.56314480977751e-19)
(0.0686723635981086 -0.000366367059881672 5.56314480971916e-19)
(0.0705106835857998 -0.000468712040446403 0)
(0.0721474569883526 -0.000566161193862697 0)
(0.0735786685748901 -0.000658446873379407 0)
(0.0748018785092699 -0.000745343428584569 0)
(0.075816258058402 -0.000826686901458846 5.71790841180447e-19)
(0.0766227108906428 -0.000902331486326282 -5.7179084118149e-19)
(0.0772238742226084 -0.00097216846402205 0)
(0.0776240609700046 -0.00103612635072796 0)
(0.0778291684840345 -0.00109417188989666 2.9139086856818e-19)
(0.0778465568819479 -0.00114630869131693 -2.9139086856769e-19)
(0.0776848958598199 -0.00119257533622689 0)
(0.0773539958944185 -0.00123304281502718 0)
(0.0768646220059589 -0.0012678112181626 0)
(0.0762283049111944 -0.00129700678595171 0)
(0.0754571476961759 -0.00132077778390065 0)
(0.0745636391670315 -0.00133929140564854 0)
(0.0735604750001114 -0.00135272973088553 0)
(0.0724603920554834 -0.00136128628926742 0)
(0.0712760144367197 -0.00136516227341471 -3.04774967187682e-19)
(0.0700197258750568 -0.00136456358856893 6.10794001598163e-19)
(0.0687035425887151 -0.00135969670236256 -3.06019034409869e-19)
(0.0673390369663345 -0.00135076669139295 0)
(0.065937224251131 -0.00133797192450932 -6.19215373508142e-19)
(0.0645085646419475 -0.00132150461276763 6.1921537350702e-19)
(0.0630628174147526 -0.00130154165705212 0)
(0.061609191113361 -0.00127825168938616 0)
(0.0601560425374807 -0.00125177529209107 0)
(0.0587113585385439 -0.00122224878954887 0)
(0.0572819964195951 -0.00118975727410346 -6.3219728784408e-19)
(0.0558749564730015 -0.0011543999269323 6.32197287850577e-19)
(0.054495437912146 -0.001116176637563 1.27223854753771e-18)
(0.0531499981022507 -0.00107515422298461 3.77734529209961e-21)
(0.051841754787308 -0.00103119699510478 -1.27601589284308e-18)
(0.0505779196582606 -0.000984365483134654 -1.28329481079139e-18)
(0.0493584161242925 -0.000934295954545511 1.28329481077759e-18)