/*--------------------------------*- C++ -*----------------------------------*\
| =========                 |                                                 |
| \\      /  F ield         | OpenFOAM: The Open Source CFD Toolbox           |
|  \\    /   O peration     | Version:  3.0.1                                 |
|   \\  /    A nd           | Web:      www.OpenFOAM.org                      |
|    \\/     M anipulation  |                                                 |
\*---------------------------------------------------------------------------*/
FoamFile
{
    version     2.0;
    format      ascii;
    class       volVectorField;
    location    "30000";
    object      grad(k);
}
// * * * * * * * * * * * * * * * * * * * * * * * * * * * * * * * * * * * * * //

dimensions      [0 1 -2 0 0 0 0];

internalField   nonuniform List<vector> 
21000
(
(-9.24097204756091e-06 0.00161013959885885 0)
(1.45103689020978e-06 0.00154195266670645 0)
(4.85804181229094e-05 0.00109528311819918 -3.48007170127819e-25)
(1.73462603457574e-05 0.000247301911691046 -4.98582704099064e-22)
(3.51599673700056e-05 8.84787521834504e-05 1.2043996126945e-30)
(8.8437650001197e-05 0.000164391123714714 0)
(6.39936943975325e-05 0.000107093824914535 -1.00670766450279e-21)
(3.6987689808451e-05 5.56075380924216e-05 -4.0084571366364e-26)
(2.37184585622944e-05 3.20283809161898e-05 3.23926557356474e-22)
(1.68696754454673e-05 2.11535108511329e-05 -2.18043502603318e-22)
(1.30380254576155e-05 1.57948388470069e-05 2.16699598875201e-26)
(9.87216852943808e-06 1.19659723886021e-05 -1.24278254493603e-22)
(7.80756042367402e-06 9.59020401344456e-06 -4.40064068600643e-26)
(6.53579861369051e-06 8.13336281743358e-06 6.33920474393435e-26)
(5.78711250626502e-06 7.26718747179429e-06 -7.37070768289848e-23)
(5.47291433295926e-06 6.89902946021074e-06 0)
(5.53377260386918e-06 6.98333398992752e-06 0)
(5.87716538287693e-06 7.42371670513567e-06 1.18072580204016e-25)
(6.40872870573652e-06 8.12699204302083e-06 -2.40775221782388e-25)
(6.8820941663307e-06 8.8324230488323e-06 1.2243679931004e-25)
(7.20683235160984e-06 9.48762799100448e-06 1.37040108921423e-25)
(7.27275840849982e-06 9.97558660492659e-06 9.70359552617742e-23)
(7.0045727887726e-06 1.01830540039124e-05 2.59654874536854e-25)
(6.40606459422448e-06 1.00615724739191e-05 -1.23868429664955e-25)
(5.58022996489178e-06 9.66968585601973e-06 0)
(4.7340519743709e-06 9.24912779732396e-06 -6.67968718040126e-31)
(3.97572009833725e-06 8.95722869016303e-06 -1.54054910343246e-25)
(3.25554140189237e-06 8.66326587685598e-06 1.49125659435978e-25)
(2.66368223859611e-06 8.70753744183453e-06 0)
(2.12029473985844e-06 8.80353610016198e-06 0)
(1.70547241663225e-06 1.00929846963238e-05 1.37827330185383e-25)
(1.44478234505106e-06 1.13876592767355e-05 -2.89940913653746e-26)
(2.02328168294416e-06 1.89902805682601e-05 -1.08875876118378e-20)
(3.07969440378898e-06 3.84019845335242e-05 -2.24332219902881e-20)
(4.39658167781698e-06 6.41298070566033e-05 8.32284462840408e-25)
(5.90800292697643e-06 0.000101469227880979 -8.322844628404e-25)
(7.29130696808874e-06 0.0001474728223982 1.86213736850278e-24)
(8.56999161729051e-06 0.000203664991538859 6.68658500988145e-25)
(9.56331438505355e-06 0.000267185002521018 7.46160760331057e-25)
(1.03221589244238e-05 0.000337393657349275 -7.35928152853852e-24)
(1.08011087615199e-05 0.000411979830190535 -8.4273748633738e-25)
(1.10599355899494e-05 0.000489782621160769 4.92506238500542e-24)
(1.11102148566241e-05 0.000569200282796707 0)
(1.09974693290839e-05 0.00064923329777328 -7.51290749750991e-24)
(1.07410216081055e-05 0.000728830824493687 -8.38049292028378e-25)
(1.03675250523574e-05 0.00080723536066626 1.75108214600296e-23)
(9.89039566826904e-06 0.000883714805326591 5.06167659883447e-19)
(9.32381929777902e-06 0.000957669745980289 5.5617205992904e-19)
(8.67647410588185e-06 0.00102852898688231 -1.06590199500949e-23)
(7.95737029378379e-06 0.00109578581867359 -1.19568463607606e-23)
(7.17408200781165e-06 0.00115896303341504 1.1956846360894e-23)
(6.33505919874569e-06 0.00121763024658386 -6.50543665444288e-24)
(5.44905567425054e-06 0.00127139709612627 -7.29565954834444e-19)
(4.52584165896864e-06 0.00131992472560795 -7.64865327929039e-19)
(3.575829296398e-06 0.00136292745722233 -6.89457355197294e-24)
(2.61021845582296e-06 0.00140017978685791 0)
(1.64069169304098e-06 0.00143152046806153 0)
(6.78958137631619e-07 0.00145685524588604 8.17541500796423e-35)
(-2.63425197403809e-07 0.00147616668915551 -8.28367016343364e-35)
(-1.17476601087395e-06 0.00148947158261191 0)
(-2.04431191169921e-06 0.00149688748586291 0)
(-2.8626697075056e-06 0.00149859330939966 3.48942956059388e-24)
(-3.62145511864556e-06 0.00149482818838639 -3.48942956058118e-24)
(-4.31366560373857e-06 0.00148588458442511 3.33464860617325e-24)
(-4.93378306964377e-06 0.00147210075398858 -3.3346486061728e-24)
(-5.47783138115074e-06 0.00145385250225616 8.3753453291345e-19)
(-5.94338051922819e-06 0.00143154449697095 4.17012456748186e-20)
(-6.32950169918329e-06 0.00140560151365597 -7.71475646447902e-19)
(-6.63668073557397e-06 0.00137645982558878 7.23042283073194e-25)
(-6.86669634765767e-06 0.00134455903581823 0)
(-7.02247300490325e-06 0.00131033450221999 0)
(-7.10791399799831e-06 0.0012742105421451 5.8828754733334e-25)
(-7.12772574722223e-06 0.00123659451561573 -5.88287547404838e-25)
(-7.08723966630357e-06 0.00119787184050632 0)
(-6.99223435026865e-06 0.00115840196858416 0)
(-6.84877287447885e-06 0.00111851534753466 0)
(-6.6630445222826e-06 0.00107851121375535 0)
(-6.44123658861615e-06 0.00103865635751439 0)
(-6.18940110019444e-06 0.000999184417876771 0)
(-5.91337875433914e-06 0.000960296224552949 0)
(-5.61868001766739e-06 0.000922160056987626 0)
(-5.31048386932807e-06 0.000884913414567774 0)
(-4.99349663374089e-06 0.000848663436232305 0)
(-4.67207170511609e-06 0.000813490310474391 0)
(-4.34996431056242e-06 0.00077944655802595 0)
(-4.03067544722142e-06 0.000746563114357885 4.31412440260713e-19)
(-3.71693250970425e-06 0.000714845115128646 8.24670009518615e-19)
(-3.41147924383031e-06 0.000684283438311288 3.93985875262627e-19)
(-3.11594962636391e-06 0.000654842393048035 0)
(-2.83255731346008e-06 0.000626482924335568 -1.97579046730678e-24)
(-2.56169604399971e-06 0.000599132841605798 1.97579046728535e-24)
(-2.30545876723327e-06 0.000572735251487049 1.59603928604696e-24)
(-2.06263505340276e-06 0.000547181412487291 -1.59603928603255e-24)
(-1.83590588077269e-06 0.000522413689234252 0)
(-1.62162502384564e-06 0.000498279132372059 0)
(-1.42441314290838e-06 0.000474748521346542 -1.05420073367629e-24)
(-1.23637805611216e-06 0.000451602239534667 2.01193524724707e-24)
(-1.06670624715288e-06 0.000428894705752054 -9.57734513572584e-25)
(-8.99518259337659e-07 0.000406290568304609 8.04323309698029e-25)
(-7.53913899839384e-07 0.000384034209727536 -8.04323309712321e-25)
(-5.9835894321354e-07 0.000361575657288347 6.98814602983935e-25)
(-4.72769750587574e-07 0.000339550491091005 -1.36074217890201e-24)
(-3.14133685694736e-07 0.000317014482808284 1.2993454243098e-24)
(-2.0638426398729e-07 0.000295396422319516 -6.37417848401514e-25)
(-3.19578342446406e-08 0.000272973979351117 0)
(2.73567802581043e-08 0.000252159168699641 6.20956090587262e-25)
(1.13184166498988e-07 0.000228556732765166 8.83099523156058e-27)
(-1.80662519730879e-06 0.00020752687969256 -2.62416677020134e-23)
(-1.67326250168725e-05 0.000211771053858691 1.44624108590381e-24)
(-3.60686635889497e-05 0.000228947236700269 -1.45580877890264e-24)
(-6.06736885764877e-05 0.000257489925843801 0)
(-8.99985667515742e-05 0.000287831117814964 1.19118371886771e-21)
(-0.000124058192213765 0.000320418013959348 0)
(-0.000161459484280429 0.000351693886294323 6.62773441888681e-25)
(-0.000202212555113649 0.000383162536652774 -6.8765692126356e-25)
(-0.00024749703582931 0.000417881833733444 3.83128550284607e-21)
(-0.000294477849831084 0.000457262677909676 -4.29602688799558e-21)
(-0.00034944360925962 0.000512643303470222 0)
(-0.000418539806982232 0.000589290188528208 -1.56424534493735e-30)
(-0.000500414123075721 0.000684889937433896 0)
(-0.000598763226932919 0.000805870258227329 0)
(-0.000710799883296892 0.000948965489541333 -5.46172805522978e-24)
(-0.000832134963134615 0.00110391786636774 5.63622746415749e-24)
(-0.000969210873693395 0.00127369221667096 0)
(-0.00113745408980296 0.00147610715750481 0)
(-0.00134701398661699 0.00172250553880779 0)
(-0.00163286909342882 0.00205320279716265 0)
(-0.00202759349521276 0.00250820915958792 2.58069767614045e-20)
(-0.00266634887880125 0.00325630246502267 2.28009324508978e-30)
(-0.00370396567160852 0.0045347353980044 -2.38055808184444e-30)
(-0.00523190763932515 0.00656476605207286 0)
(-0.00738274662364684 0.0097581589273167 -9.86905618101539e-20)
(-0.0103190288581119 0.0148546646840723 -8.29593849382261e-24)
(-0.0137810773867904 0.0226212390520479 8.26674387353108e-24)
(-0.0160836400574949 0.0321024008564991 1.4274139274827e-19)
(-0.0124765782642489 0.0341134756611223 2.236021218572e-23)
(-0.00532999401683944 0.0218807084777561 -4.40586443683646e-20)
(-0.00159033650007555 0.0103375188922887 2.48575627097203e-24)
(-0.000366830400531778 0.0038496091209592 -2.48259276433522e-24)
(-8.06966992178509e-05 0.00188245659682841 0)
(-7.51955150134497e-06 0.00266355599351054 0)
(1.5640774686598e-05 0.00243528001369203 0)
(0.000128383323740257 0.00179377133308182 0)
(0.000210811616443777 0.00117221885195812 4.83717847428951e-22)
(0.000124128386799469 0.000378413822405288 0)
(-2.76728558821275e-05 -4.88482265922164e-05 0)
(-4.78655835702741e-05 -7.26835515408878e-05 9.75499485735391e-22)
(-2.79029189051431e-05 -3.71762261309962e-05 0)
(-1.52828198570886e-05 -1.87891324376393e-05 -1.89922527790793e-22)
(-9.95859287858386e-06 -1.17040434843972e-05 3.01897794843406e-22)
(-7.5738067422041e-06 -8.74751132453687e-06 -3.98795049316948e-27)
(-5.38762644415856e-06 -6.25085868103289e-06 1.20388096433409e-22)
(-3.75551355191714e-06 -4.46006707367101e-06 -4.96987614180673e-23)
(-2.57044914214612e-06 -3.12722773322966e-06 4.8468917522928e-23)
(-1.65937178318158e-06 -2.0670395231183e-06 7.13787063645639e-23)
(-9.34941646495982e-07 -1.19982061675322e-06 5.52639114363257e-23)
(-3.20252075287334e-07 -4.45037891517665e-07 -6.34450616276218e-23)
(2.87521281385856e-07 3.19628615168205e-07 -3.38297837535466e-26)
(9.67305944191421e-07 1.19350275026004e-06 -6.06433065698927e-27)
(1.86384922242004e-06 2.37555184051044e-06 3.76426404971589e-26)
(2.97110063667283e-06 3.90761588633774e-06 4.99596224516149e-26)
(4.28428952071111e-06 5.86754013166206e-06 -9.43973748803518e-23)
(5.71429006509384e-06 8.25478254283315e-06 5.31474257927946e-26)
(7.09540539338589e-06 1.09914056613203e-05 0)
(8.21845954099868e-06 1.39498582938579e-05 -2.13692922116342e-22)
(8.8905053739459e-06 1.6961964819456e-05 -1.15575891065846e-22)
(9.0930715957768e-06 1.99450770512847e-05 -1.40971559429885e-25)
(8.84823633105254e-06 2.2946273541683e-05 -1.51323650283022e-20)
(8.10136120282836e-06 2.58552054942034e-05 4.95606814792052e-22)
(7.01302640365622e-06 2.92523096662446e-05 1.90683756050477e-20)
(5.46615912083348e-06 3.3152515868165e-05 -1.66378551296742e-25)
(3.66729624878473e-06 4.02188802875506e-05 -2.49040132925633e-25)
(1.43859634813043e-06 5.04962416639584e-05 1.08252842046483e-20)
(1.37298095181006e-06 6.63373299788768e-05 2.14902936991242e-20)
(1.81740832491673e-06 8.74684182459586e-05 0)
(2.29350929023325e-06 0.000108942758695759 0)
(2.75662200512163e-06 0.000134097684434888 0)
(3.1925752403285e-06 0.000161193236387266 0)
(3.57080830645507e-06 0.000192114199475817 -2.53736267873925e-35)
(3.89508396452285e-06 0.000226527930672244 1.61946530983628e-24)
(4.15987947310166e-06 0.0002655756626116 -1.61946530984919e-24)
(4.37513094217387e-06 0.000309429420351573 2.26499246329471e-24)
(4.54493795194699e-06 0.000358751244182009 -2.26499246332097e-24)
(4.67766205155967e-06 0.000413774160324033 0)
(4.77750368489273e-06 0.000474852649409212 0)
(4.84890462655576e-06 0.000542135189947635 0)
(4.89379750538222e-06 0.000615763959640639 -4.95898707209016e-19)
(4.91365838163768e-06 0.000695758608184121 -5.3411780658954e-19)
(4.90879741590395e-06 0.000782084773077257 0)
(4.87933621264583e-06 0.000874611522800078 0)
(4.82510685851455e-06 0.000973133920302962 1.04426068620617e-18)
(4.74610244491478e-06 0.00107735826524179 1.127582434851e-18)
(4.64247173908147e-06 0.00118691104694264 7.12696193363349e-19)
(4.51463598050503e-06 0.0013013351630065 7.36276621823525e-19)
(4.3632219213266e-06 0.00142009312551655 3.29457144811639e-24)
(4.1891542486245e-06 0.00154256584278589 0)
(3.99354080586665e-06 0.00166805980283216 0)
(3.77872208405932e-06 0.00179580335431829 -7.92667749462096e-35)
(3.54390333490358e-06 0.00192519341770237 8.03163898020903e-35)
(3.29055482527705e-06 0.00205501547193384 0)
(3.02384069419137e-06 0.00218439625401998 -4.28471654217824e-24)
(2.74625669274426e-06 0.00231243212089626 6.47900161768014e-24)
(2.46053656073731e-06 0.00243822776101376 -2.19428507548649e-24)
(2.16939260747818e-06 0.00256090846199085 0)
(1.87548733613874e-06 0.0026796338213099 0)
(1.58137711360195e-06 0.00279361005209022 -8.1345583494385e-19)
(1.2894655168598e-06 0.00290210079470713 -3.80446038484943e-20)
(1.0019646409101e-06 0.00300443615687006 7.47018214373641e-19)
(7.20864468729683e-07 0.00310001985367268 -7.48938929354676e-35)
(4.47910969629686e-07 0.0031883343228364 0)
(1.8459173732688e-07 0.00326894386833588 0)
(-6.78701626410965e-08 0.0033414958130342 6.93339930506468e-35)
(-3.08516114045066e-07 0.00340571987562825 0)
(-5.36646135881066e-07 0.00346142582952911 0)
(-7.51807290635372e-07 0.003508499748526 0)
(-9.53779539782617e-07 0.00354689895690071 -2.36659507865552e-24)
(-1.14255833584583e-06 0.00357664604917599 2.36659507865551e-24)
(-1.31833638504804e-06 0.00359782193874671 0)
(-1.48148305440006e-06 0.00361055863130745 4.58410352593862e-24)
(-1.63252628907183e-06 0.00361503110041479 -4.58410352593051e-24)
(-1.77213189295871e-06 0.00361144983841008 -4.45535152693535e-24)
(-1.90108897271012e-06 0.00360005185931374 4.45535152695453e-24)
(-2.02029067540273e-06 0.00358109425576053 4.30705896962728e-24)
(-2.13072530577997e-06 0.00355484379332746 -4.30705896964517e-24)
(-2.23346020673737e-06 0.00352157345697823 0)
(-2.32963921966081e-06 0.00348154836771149 -4.15385198846129e-19)
(-2.42046841543079e-06 0.00343502928331742 -7.99525139863686e-19)
(-2.50721680960575e-06 0.00338224931320114 -3.84946819109645e-19)
(-2.59120281685503e-06 0.00332343291654705 -1.95980051232192e-25)
(-2.6738107647842e-06 0.00325875144497409 -7.53916998096228e-24)
(-2.75642374040072e-06 0.00318837415516687 -7.12846587481835e-24)
(-2.84055985933154e-06 0.00311238147243713 7.12846587495247e-24)
(-2.92753775799524e-06 0.00303087522826953 0)
(-3.0190448801536e-06 0.00294381793483045 0)
(-3.11597741129367e-06 0.00285124302884873 0)
(-3.22029097452076e-06 0.00275297757010977 0)
(-3.33169908096232e-06 0.00264900486613934 0)
(-3.45240290679039e-06 0.00253901800627073 0)
(-3.57963975223186e-06 0.00242302135684998 0)
(-3.71537373712967e-06 0.00230059458314326 0)
(-3.85269873300898e-06 0.00217197395528451 0)
(-3.99027017382133e-06 0.0020366137016611 0)
(-4.11309359404593e-06 0.0018956274883497 0)
(-4.21316272429763e-06 0.00174835191087416 0)
(-4.31222514188411e-06 0.00159810404303843 0)
(-4.49142430686091e-06 0.0014403532986681 0)
(-4.5888549165231e-06 0.00127647607091603 -5.36791556238779e-24)
(-1.47969706010757e-05 0.00111101181470182 3.01978948006084e-23)
(-8.89684534136248e-05 0.00110888879333975 0)
(-0.000189250465053153 0.00121192145384173 0)
(-0.000321542843040364 0.00138750330006089 6.64578428179799e-21)
(-0.000493710695870015 0.00161253516563889 -1.15487028902725e-21)
(-0.000708913069097529 0.00187154948003207 -9.2336603714976e-21)
(-0.000968473056180383 0.00215570079701756 1.08330424106406e-20)
(-0.00127168046112193 0.00245834028970552 0)
(-0.00162699943216721 0.00279615716973496 -3.71388243075067e-21)
(-0.0020145148283946 0.00316207913910134 -2.96881065404853e-20)
(-0.00240445042663789 0.00352857443459491 9.45139158328207e-24)
(-0.00277658527527584 0.00387962908871019 -2.04326981111311e-23)
(-0.0031157431801836 0.00420787025041876 2.28040163158574e-23)
(-0.0034026310821709 0.004499248825309 -1.22029027964058e-23)
(-0.00359637520635729 0.00470902973884069 -5.60569685149044e-20)
(-0.00369738940877227 0.00481236969714341 5.87029788713941e-20)
(-0.00375349442759214 0.00484192973379585 7.75282285976072e-24)
(-0.0037876648381775 0.00482747758661539 -8.03861125977205e-24)
(-0.00381947680655586 0.00479574431073859 6.54284225693162e-20)
(-0.00385730553410315 0.00475907323305717 6.88023861643455e-20)
(-0.00391855523297982 0.00474279116511608 -2.50007471152375e-20)
(-0.00404438190947073 0.00481093851152479 0)
(-0.00409995824895137 0.00488531104744924 0)
(-0.00396893789642357 0.00486592870767396 0)
(-0.00352401301876521 0.00459536845138694 9.56026035845474e-20)
(-0.00258230636936032 0.00377074996313588 9.18370291192394e-25)
(-0.00102298606934423 0.00192516396542517 0)
(0.000904331664149981 -0.00152266627111961 -1.38338792809524e-19)
(0.00126129364762992 -0.00388075341678856 0)
(-0.000273437640433138 0.000263591201443045 4.26973393701917e-20)
(-0.000430988527008957 0.0030546875584413 -4.35467310019546e-24)
(-0.000128616042592866 0.00361623048413921 8.90991039722349e-25)
(-2.91270783184478e-05 0.00315126153838166 0)
(-4.63612981849698e-05 0.0125895959189063 0)
(6.34821295888023e-05 0.0116664275249371 -1.36992929886379e-24)
(0.000597115511939214 0.00850881980157565 -3.73501175725576e-25)
(0.000756286253469306 0.00441793971751603 9.70744138869521e-25)
(0.000450070349086844 0.00147459730396138 8.08198897201626e-25)
(0.000116813825594852 0.000273131679383401 -1.69083501383366e-21)
(1.96615617425052e-05 3.79790779845915e-05 -6.4080518400663e-22)
(1.36727088990868e-05 1.95722756676247e-05 -7.25383191604767e-27)
(1.53410259068743e-05 1.96874262566127e-05 1.98691354940783e-22)
(1.26005111399386e-05 1.5475190100703e-05 -8.77909371222605e-23)
(9.63952503564503e-06 1.15549487755844e-05 0)
(8.32684466014268e-06 9.92338648299651e-06 -1.56581505961284e-22)
(8.03197517798919e-06 9.69678657236758e-06 -9.96448022476433e-23)
(8.40828823960908e-06 1.03118625336958e-05 1.05095800448587e-22)
(9.27081475710222e-06 1.15351319725588e-05 1.65564573610467e-22)
(1.06286793094355e-05 1.3384933681737e-05 -5.35562448721179e-23)
(1.25866759295265e-05 1.60008879898106e-05 6.14725460950603e-23)
(1.52594401138964e-05 1.9533564715312e-05 -2.67764090325468e-22)
(1.87150667962272e-05 2.40717426187308e-05 -2.80210337739561e-25)
(2.28113408532922e-05 2.96122596103898e-05 1.51168581945989e-25)
(2.72793389423421e-05 3.61643760361766e-05 4.81892370552388e-22)
(3.18422447058285e-05 4.36891172250993e-05 -2.63666844987188e-25)
(3.60044231491363e-05 5.19140452652919e-05 6.6681060498288e-22)
(3.91912800386664e-05 6.04738089485122e-05 3.85610520731421e-25)
(4.09022734606244e-05 6.90974840628777e-05 2.05731629196199e-22)
(4.09939027794001e-05 7.78224458336569e-05 1.11940545322754e-22)
(3.9766006333117e-05 8.6765644347289e-05 -8.70812364474316e-20)
(3.71374291839219e-05 9.5765651212912e-05 -8.16430494901309e-20)
(3.32320250369234e-05 0.000105312327836008 -1.12500425530774e-21)
(2.82348523558506e-05 0.00011657634137573 -1.81514583179501e-20)
(2.23127974075722e-05 0.000132495668050784 3.47633567853576e-22)
(1.52464016368333e-05 0.000158844349106555 0)
(6.92868910145911e-06 0.000211502009929593 -8.27459214429977e-24)
(6.97053289479438e-06 0.000311162605007678 0)
(8.90333679618374e-06 0.000443805442641642 -4.43390653938163e-19)
(1.0865159460938e-05 0.000606698829229324 -6.12265136268636e-19)
(1.28602700754467e-05 0.000802958366498757 -4.02844573917235e-24)
(1.47629737363574e-05 0.00103076900412843 9.13924913405385e-24)
(1.65337068881407e-05 0.00128896970005095 1.21218018462527e-24)
(1.81480026917584e-05 0.00157489413275849 -1.3976500559858e-23)
(1.96115051975958e-05 0.00188641923766 -1.43783110173332e-24)
(2.09359865185025e-05 0.00222121194061854 9.09134808194217e-24)
(2.21395634019966e-05 0.00257740434361194 -1.22494618920942e-23)
(2.32370704318888e-05 0.00295326331816413 1.22494618920709e-23)
(2.42395209829039e-05 0.00334731268952429 0)
(2.5152260073306e-05 0.003758148720564 0)
(2.59756990613355e-05 0.00418440870378518 0)
(2.67061235056217e-05 0.00462466848045831 0)
(2.73368644093076e-05 0.00507740106394123 -2.34409220171089e-23)
(2.7859534792798e-05 0.0055409318105443 2.34409220166678e-23)
(2.82650855768473e-05 0.00601342357480809 -1.0216897492849e-18)
(2.85447669394339e-05 0.00649287298048109 -1.08408955630228e-18)
(2.86906738661095e-05 0.0069771222153136 0)
(2.86958819663757e-05 0.00746387576098797 0)
(2.85543284948982e-05 0.00795071495116943 0)
(2.8261372084635e-05 0.00843511060143301 0)
(2.7813224830055e-05 0.00891446629044551 0)
(2.72312653228032e-05 0.00938626588813822 -2.10284797156942e-23)
(2.64815372887008e-05 0.00984818905388543 2.10284797158767e-23)
(2.55480693872335e-05 0.0102965804296112 0)
(2.44740182546529e-05 0.010728950107303 2.38329378696125e-23)
(2.32667030034321e-05 0.0111428626168745 -1.14900153190028e-23)
(2.19376857042754e-05 0.0115360572850724 -1.23429225506077e-23)
(2.04997949812883e-05 0.0119064701635553 0)
(1.89670255227355e-05 0.0122522590136915 -1.34684010379177e-23)
(1.73541800903575e-05 0.0125718220813996 2.0361643275134e-23)
(1.56765283527966e-05 0.0128638110791314 -6.89324223726083e-24)
(1.3949473984716e-05 0.0131271384004408 0)
(1.21882383307426e-05 0.013360978679604 -1.81911181080092e-24)
(1.04075725347248e-05 0.0135647650273085 1.81911181080092e-24)
(8.62149918833586e-06 0.0137381804715326 1.86270961041664e-24)
(6.84309441605859e-06 0.0138811449995737 -1.8627096104166e-24)
(5.0843070763926e-06 0.0139937991155128 0)
(3.35581785773493e-06 0.0140764842257701 -7.59090091964116e-24)
(1.66694163849767e-06 0.0141297208825676 2.28032560043587e-23)
(2.55642084977392e-08 0.0141541853243623 4.685644178216e-28)
(-1.56189206150894e-06 0.0141506850747289 -2.86277998675878e-26)
(-3.09046571604445e-06 0.0141201338395526 -1.5184195849292e-23)
(-4.55664094170736e-06 0.0140635267850789 0)
(-5.95829274788938e-06 0.0139819155600486 0)
(-7.29465539233719e-06 0.0138763851617605 2.96022406940695e-23)
(-8.56621731293764e-06 0.0137480297138618 -3.14019080959192e-25)
(-9.77472205669763e-06 0.0135979327907162 -2.92882216129877e-23)
(-1.09229822953438e-05 0.0134271428790313 0)
(-1.20150084206424e-05 0.0132366601098425 0)
(-1.30556428110015e-05 0.0130274070198125 0)
(-1.40509780084818e-05 0.0128002280302378 0)
(-1.50075657221705e-05 0.0125558455496303 0)
(-1.5933449420024e-05 0.0122948868488929 -5.19222853276044e-23)
(-1.68365894533403e-05 0.012017804631331 1.23438622987975e-24)
(-1.772677020441e-05 0.0117249576879351 5.06878990972197e-23)
(-1.86130906277558e-05 0.0114164670708484 4.80236170040014e-23)
(-1.95064782460954e-05 0.0110923804330449 -9.46171030291857e-23)
(-2.04167361662158e-05 0.0107524466106559 9.16901048836874e-23)
(-2.13541084148143e-05 0.010396372951428 -8.86276464483576e-23)
(-2.23285036873335e-05 0.010023559506407 4.35310275921995e-23)
(-2.33456674156998e-05 0.00963336230241435 4.01823940683482e-23)
(-2.44128448305102e-05 0.00922498864614936 -1.78984464606076e-24)
(-2.55254896116666e-05 0.00879752395113899 -3.83925494219161e-23)
(-2.6679248103434e-05 0.00835033893312844 0)
(-2.78548161598592e-05 0.00788263379581865 0)
(-2.90025616232757e-05 0.00739444991774282 0)
(-3.00701711482254e-05 0.00688664299023053 0)
(-3.0915874151724e-05 0.00636106989913132 -5.18507012119443e-23)
(-3.18177624556424e-05 0.00582348340981505 5.77722450510514e-18)
(-3.31635332524284e-05 0.0052662176524313 5.18982863213052e-18)
(-3.38033420262578e-05 0.00468386984111664 -4.23224037086168e-23)
(-6.2767201083502e-05 0.00410750763369392 -6.9953443360969e-22)
(-0.000323755833253125 0.00412004444090275 3.49411977888834e-23)
(-0.000685799778228052 0.00450170382664538 -4.13485171423015e-23)
(-0.00116787867604365 0.0051483641393088 -6.40153354326107e-21)
(-0.00179322007406504 0.00596095064311944 5.66637231258252e-23)
(-0.00257178897931018 0.00688926616967613 8.96002776941071e-21)
(-0.00350374031029605 0.00789552414757785 -5.52342637663309e-20)
(-0.00458618902707498 0.00896274105093881 -8.05098580937265e-23)
(-0.00584759771952486 0.0101491810542231 1.04469497329962e-22)
(-0.00721851706996841 0.0114304203779286 -1.07417342764951e-19)
(-0.0086199222818099 0.0127473884048424 6.23138144776172e-23)
(-0.00999802175801782 0.0140638990509978 -1.78767490085022e-19)
(-0.0113004066561738 0.0153507864192313 -1.97728226394534e-19)
(-0.0124748368811253 0.016575987356861 2.15218154180111e-19)
(-0.01338329980776 0.0175911973536763 5.43166135569728e-20)
(-0.0140196872630363 0.0183024528929512 -2.96233224627327e-19)
(-0.0145562383652583 0.0188245125953307 -5.09694273174843e-23)
(-0.0151043695421839 0.0192938548711408 -2.5504702189215e-19)
(-0.0157566900300962 0.0198243378948827 -3.27305658892858e-19)
(-0.0166320999259258 0.0205577158925207 -6.66554022353972e-20)
(-0.017889494333444 0.0216843776111098 0)
(-0.0200191634492684 0.023820527413883 -3.54629014895744e-23)
(-0.0229627143974587 0.0272913524771888 1.61798946532866e-23)
(-0.0265808992555697 0.0323267365653541 2.15801617121555e-23)
(-0.0308430488548192 0.0394401566612513 5.35607474214049e-19)
(-0.0355571229829536 0.0494572151832637 1.35302171374677e-23)
(-0.0394128565357235 0.0626547505008582 -8.05095529971977e-19)
(-0.0379572211769456 0.0746986209498227 -4.59404401955745e-19)
(-0.0253920801394168 0.0718579609049713 -4.19577273439726e-19)
(-0.0113778335499395 0.0548758763227221 1.52444180403993e-19)
(-0.0035061077904102 0.0354325455909082 1.31006614040911e-23)
(-0.000553549689714331 0.0212466273397409 3.50302912721437e-21)
(-0.000131767440560938 0.014853829126384 0)
(-0.00017651572721017 0.0311702943000591 0)
(7.85012993906993e-05 0.0288347972372773 -9.98186845340721e-24)
(0.00134045119033612 0.0211098521254598 -3.17762740546496e-20)
(0.00173915289759827 0.0109844596037405 0)
(0.00105359248674469 0.0037327539966784 0)
(0.000295296348939121 0.000753717993332342 6.63115121763843e-21)
(6.40982531298418e-05 0.000128549867335617 6.20906143607222e-22)
(4.31259278778603e-05 6.19606229070185e-05 0)
(4.35909518803061e-05 5.60500866792886e-05 -3.08725136477055e-22)
(3.51342946999165e-05 4.34312650813708e-05 -4.05288943499861e-26)
(2.68746495546119e-05 3.24382533227498e-05 3.91442026426244e-26)
(2.28365490551743e-05 2.73362006049183e-05 1.51657650320107e-22)
(2.15582331946359e-05 2.60795727138264e-05 1.43197075436088e-22)
(2.21290662200061e-05 2.71421312357834e-05 -1.47330640546083e-22)
(2.40239353425299e-05 2.984844901338e-05 -1.6040300482259e-22)
(2.72330392319131e-05 3.41968465544343e-05 0)
(3.19972125230521e-05 4.05083391220699e-05 3.7330829600979e-25)
(3.85777450228502e-05 4.91315608494776e-05 -4.91332258501885e-22)
(4.71346637254945e-05 6.02845995833135e-05 -1.14893242933857e-25)
(5.72845922417221e-05 7.392924161224e-05 5.37660896723243e-25)
(6.83545010043937e-05 9.00852120044561e-05 -4.66145776673437e-22)
(7.96411343083334e-05 0.0001086459519873 1.61274622108925e-21)
(8.9910837789214e-05 0.000128944368268547 -6.4348267567983e-22)
(9.77422342444962e-05 0.000150076156184337 -2.14605381676314e-21)
(0.000101902596743522 0.000171349087917147 2.70925818691258e-24)
(0.000102051633333427 0.000192833629006583 3.39819877424319e-25)
(9.89495207759899e-05 0.00021484797345762 8.62975792614206e-20)
(9.2418676457777e-05 0.000237005366654197 9.1851334937681e-20)
(8.28366657638921e-05 0.000260575434042062 -1.6319777347975e-21)
(7.07306500980009e-05 0.000288400457790605 -3.58086008023636e-24)
(5.67471237613569e-05 0.000328070166991134 -3.38106334698924e-22)
(4.0736225656943e-05 0.00039383311084288 -5.9197558544495e-22)
(2.29363324454105e-05 0.000525808994746679 -1.06775255250955e-22)
(2.60562017245969e-05 0.000774339162164495 8.26225429922803e-24)
(3.32308614295803e-05 0.00110533277873547 4.38373871956256e-19)
(4.04629225532019e-05 0.00151297420401018 5.85177992329778e-19)
(4.78186768304784e-05 0.00200366935541155 0)
(5.48298083032874e-05 0.002573054707608 3.70309819852139e-23)
(6.13758790574205e-05 0.00321746054303626 -3.70309819854058e-23)
(6.73590269493105e-05 0.00393010664689886 0)
(7.28092827161184e-05 0.00470522779471625 0)
(7.77638856499189e-05 0.00553684649675794 0)
(8.22906540493459e-05 0.00642005308876258 0)
(8.64395717916099e-05 0.0073504150716628 0)
(9.02497767568201e-05 0.00832412565156295 0)
(9.37377456229246e-05 0.00933762385657429 0)
(9.69032219841081e-05 0.0103874605287763 0)
(9.97302432185388e-05 0.0114700717507522 -7.74079156638979e-23)
(0.000102192536747821 0.0125816580617291 7.74079156645866e-23)
(0.000104257323541341 0.0137180840180443 0)
(0.000105889571867605 0.014874836082021 0)
(0.000107055276203459 0.0160470173661773 -1.07214099741429e-22)
(0.000107723617262889 0.0172293753275821 -7.65586666123851e-24)
(0.000107867370333365 0.0184163454382491 1.14869966401477e-22)
(0.000107462402650392 0.0196020884999381 -6.50866758950641e-23)
(0.000106490821502592 0.0207805227873188 6.50866758943815e-23)
(0.000104955367938176 0.0219454087771038 0)
(0.000102887225625088 0.0230911208801055 0)
(0.000100164703462495 0.0242105467936004 0)
(9.67719064013145e-05 0.0252960988158705 0)
(9.28433152650807e-05 0.0263418243579634 8.65537009457234e-23)
(8.84056769054915e-05 0.0273419520158331 -8.65537009458813e-23)
(8.35011748567597e-05 0.0282911366173064 0)
(7.81769365853127e-05 0.0291845100562387 0)
(7.24846782017809e-05 0.0300177387085212 4.90080476600911e-23)
(6.64793742561403e-05 0.0307870661290946 -4.90080476600087e-23)
(6.02179849574254e-05 0.0314893421345732 0)
(5.37582060608045e-05 0.0321220383756672 0)
(4.71572739440264e-05 0.0326832506920935 0)
(4.04708707161392e-05 0.0331716890644948 0)
(3.37521350180304e-05 0.0335866563965609 0)
(2.70508200349701e-05 0.0339280170814079 0)
(2.04125878685853e-05 0.0341961574739038 0)
(1.38784520141539e-05 0.0343919389978989 0)
(7.48438141038356e-06 0.0345166462890159 -5.55937425638737e-23)
(1.26103433054606e-06 0.0345719314068245 1.11209890406695e-22)