/*--------------------------------*- C++ -*----------------------------------*\
| =========                 |                                                 |
| \\      /  F ield         | OpenFOAM: The Open Source CFD Toolbox           |
|  \\    /   O peration     | Version:  3.0.1                                 |
|   \\  /    A nd           | Web:      www.OpenFOAM.org                      |
|    \\/     M anipulation  |                                                 |
\*---------------------------------------------------------------------------*/
FoamFile
{
    version     2.0;
    format      ascii;
    class       volTensorField;
    location    "30000";
    object      grad(Usqr);
}
// * * * * * * * * * * * * * * * * * * * * * * * * * * * * * * * * * * * * * //

dimensions      [0 0 -1 0 0 0 0];

internalField   nonuniform List<tensor> 
21000
(
(-0.000310519266011918 2.13318126194101e-07 0 0.369026229202279 2.65557797544874e-06 0 0 0 0)
(0.00317578344806038 7.6740117392614e-06 9.81052888426333e-43 0.346420953019244 2.91879893955012e-05 8.51932469379562e-45 0 0 0)
(0.0190041770283633 0.000102407015766127 2.79328032561737e-42 0.245240324217104 0.00117864830380279 2.00708029531686e-41 -1.15604829536424e-23 -1.12150313324456e-25 -2.03593846317494e-62)
(0.00537511723595948 0.00014158096545139 2.17911385225068e-34 0.0327503731165736 0.000737037920788666 7.64844045831568e-34 -6.59864301639353e-20 -1.48459719107873e-21 -1.53857202568132e-51)
(0.0012396742333045 0.000261728993837215 4.52150180399565e-34 0.00320821171154012 0.000611679141473583 1.29556332139218e-33 0 0 0)
(0.0155658668883091 0.00419963622999697 -7.03105788079153e-35 0.0301195226138181 0.00807728234319163 -1.09154162102122e-36 0 0 0)
(0.0133623823301428 0.00533263151765258 6.64961213876438e-33 0.0210748206003521 0.008342333722087 1.03735270287052e-32 -1.97934139586856e-19 -7.83465337784209e-20 -9.74136039895601e-50)
(0.00759094721554121 0.0039446100828804 3.13008872963644e-34 0.0104924828863407 0.00542053199540979 -7.38879433793423e-37 -9.79939959820158e-25 -4.2497152501742e-25 -1.45399359217675e-62)
(0.00448623119602334 0.00276935195837918 3.74980834880462e-33 0.00568895605975567 0.00350002043529418 4.26978332063098e-33 5.74996533472321e-20 3.53759486188513e-20 4.32134322400632e-50)
(0.0029925334901798 0.00205386781051477 3.64609872779494e-32 0.00360246157477095 0.00246812642727961 4.39700389281212e-32 -3.71218869553422e-20 -2.54335217023591e-20 -4.53065264298742e-49)
(0.00224740645578024 0.00161588022494456 1.25177698089782e-33 0.00264305289416657 0.00189928307094341 -3.92645069956131e-35 4.33616955868135e-25 3.24318261154911e-25 4.28601974410415e-53)
(0.00170353928660488 0.0012191503179064 2.49890498548442e-32 0.0020086085292554 0.00143796202366634 2.92468631175387e-32 -2.08542506613852e-20 -1.49294081749976e-20 -3.03796701357601e-49)
(0.00135410392149306 0.000931992697178744 8.36658435681177e-33 0.00162875791026476 0.0011219725606327 1.13404186239515e-32 -9.0315552853679e-25 -6.35851334490645e-25 -4.4663826125715e-53)
(0.00113363713290113 0.000750276851019581 1.45029002420482e-32 0.00139167095038812 0.000921812139192802 1.71059510585973e-32 1.3371622772931e-24 8.75485397643304e-25 5.33219715114324e-53)
(0.000997305507549434 0.000638359110829477 1.40438128976039e-32 0.00124590320006925 0.000798052498796454 1.8086098186804e-32 -1.26207405517909e-20 -8.08389139643101e-21 -1.83035526177454e-49)
(0.000930068616577313 0.00058005152815765 9.87694758629888e-33 0.00117843946831924 0.000735384839538249 1.31670208740214e-32 0 0 0)
(0.000924140238051545 0.000564955291341162 1.12807110317564e-32 0.00118371223037247 0.000723968030779788 1.36668562695632e-32 0 0 0)
(0.000964381510177232 0.000581438939466712 5.44236275370414e-33 0.00124488181766953 0.000750798759925409 6.14106471086282e-33 2.55837830290591e-24 1.54081716077652e-24 1.22675571943279e-52)
(0.00103713489085796 0.000619030733368843 4.34589474444332e-33 0.00134573063114051 0.000803530659173786 6.43274460080275e-33 -5.22799126470083e-24 -3.12525015405282e-24 -1.80544190997884e-52)
(0.00110490959305271 0.000646940449847665 -6.23138560454271e-34 0.00144707691682205 0.000847998874151487 4.73908967708529e-35 2.66351411687023e-24 1.58148535087133e-24 5.97529073130853e-53)
(0.00115656139815351 0.000648604112759102 7.65152805436825e-34 0.00154687013725606 0.000868849972481283 -6.38607251740768e-35 3.06174922697458e-24 1.67307561798459e-24 6.98154961818991e-53)
(0.00117467694492559 0.000614031864534214 1.73234947987065e-32 0.00162598213570049 0.000852007206400322 2.3985377446458e-32 1.58398985198964e-20 8.29886378168489e-21 2.3361643719846e-49)
(0.00114394982550912 0.000540294928668674 -7.42145042216328e-34 0.00166398474941222 0.000788692820537938 6.42668984714384e-35 6.04468018245952e-24 2.88864370192142e-24 6.6164428912958e-53)
(0.00105905064496326 0.000435428877321222 2.02327821939909e-39 0.00164879371244947 0.000681345080283065 8.05617175445254e-39 -2.93049154010475e-24 -1.32374395204489e-24 -3.32853740639925e-58)
(0.000929378197140584 0.000317577116352883 1.19515384897402e-32 0.00158465669431379 0.000545453655087163 1.99169252199387e-32 0 0 0)
(0.000787070492616219 0.000212181470192811 4.27924372571304e-33 0.00150884713046298 0.000410911584754102 7.64721958303161e-33 0 0 0)
(0.000655587545119011 0.000133044200494332 9.14597180596164e-34 0.0014460369064772 0.000297470172158555 2.53454626088421e-33 -4.3265630462806e-24 -8.12148606209328e-25 -4.24543347535663e-53)
(0.000524894771951941 7.56638241541723e-05 2.96584648693288e-29 0.00136979114565886 0.000201375779786378 7.72493329405377e-29 4.1881447481484e-24 7.86165804918918e-25 4.10961072870845e-53)
(0.000423210257195274 3.99274533485772e-05 6.72600435020269e-33 0.00136145879139217 0.000132211489725228 2.16056670894411e-32 0 0 0)
(0.000321969567270318 1.74413577798886e-05 2.43989434785771e-29 0.00135273917176167 7.73274569477109e-05 1.0312577033273e-28 0 0 0)
(0.000264679733628493 6.5670753398745e-06 1.82923916757953e-35 0.00163275688057084 4.46716827508224e-05 -1.40353989089309e-36 4.37323031581141e-24 7.77495914919426e-26 2.86059959955829e-54)
(0.000171798769246338 9.96947099767662e-07 6.2048321742331e-30 0.00188087263592069 1.67422275154121e-05 -5.12918502462951e-31 -8.11072860155202e-25 -6.78210743551218e-26 4.84308573425822e-49)
(0.00010558881711659 -4.50435224395235e-08 8.82260859739615e-30 0.00380882921427586 5.58251758161758e-06 2.12284218254199e-28 -2.19473251971778e-18 -3.21417741561372e-21 -1.22147704938278e-43)
(0.000105981694815282 -8.61656349536622e-09 -6.21043079846453e-30 0.00865329112899882 3.71608530648728e-06 2.09979212644994e-28 -5.00081776495378e-18 -2.1435814293171e-21 -1.21403813430452e-43)
(0.000151590495934059 1.04625081029492e-09 -6.40324816517144e-30 0.0150024578642133 4.30582275742e-06 5.01481918477785e-31 2.84819233895502e-23 3.58741963914654e-28 1.75877011987087e-58)
(0.000204027631220396 9.94351880261754e-10 5.65955129440823e-43 0.0242462447492515 4.67005553630702e-06 1.15761707255477e-38 -2.84819233895499e-23 -3.58741963914651e-28 -1.75877011987085e-58)
(0.000251949927576934 1.08842695277512e-09 -1.12664545924223e-39 0.0354996798811967 4.82713295541546e-06 1.16718397112204e-38 6.40587692684255e-23 5.21247113814399e-28 8.80166421254998e-59)
(0.000296236338088074 9.24170289471661e-10 -1.12808052850097e-39 0.0490908401459575 4.71815834591023e-06 8.09926705108915e-41 2.31133184966655e-23 7.21067590275279e-29 -8.80164962658215e-59)
(0.000330549045399353 8.42164229200822e-10 4.52413191731025e-39 0.0642283900136881 4.44783643860904e-06 -3.05093153982051e-40 2.57905070471554e-23 6.57083806181475e-29 3.52987424164799e-58)
(0.000356689303436303 6.71451150741237e-10 1.38484856909127e-45 0.0807099218290396 4.05915185999522e-06 7.23060321965423e-38 -2.53755244261805e-22 -1.3705133002762e-27 -7.05975248097414e-58)
(0.000373056451077086 5.46757268055228e-10 -3.38978345057064e-39 0.0979297146730151 3.62759576983581e-06 2.59787046771253e-38 -2.91070725037683e-23 -4.26597727965769e-29 2.64481883058083e-58)
(0.000381747377851984 4.00253472926704e-10 -2.54216775939387e-45 0.115583200520299 3.18561359153874e-06 3.7505091614335e-38 1.69899721951652e-22 7.54110819607336e-28 8.85057950170638e-59)
(0.000383159692944386 2.7819731781331e-10 1.23326467149185e-41 0.133267928414968 2.76454297808566e-06 2.57891072284682e-38 0 0 0)
(0.000378887066977205 1.52505337193082e-10 7.02590966202512e-45 0.150736131002684 2.37414502304822e-06 1.17795806770493e-38 -2.59142244905351e-22 -8.189447078734e-28 -8.94683778915389e-59)
(0.000369602614706758 3.74685217165649e-11 3.47077419141156e-39 0.167733243496386 2.02107922758205e-06 -1.86197095870172e-40 -2.88375930044767e-23 -2.92341541092327e-30 -2.70801042957313e-58)
(0.000356240053671183 -7.76324900637888e-11 6.42146076327387e-30 0.184079467872646 1.7043905748078e-06 -3.35272125428621e-31 6.03754678529584e-22 1.6376791082535e-27 5.01023166188063e-49)
(0.000339269253159739 -1.87571602993174e-10 6.58776226770344e-30 0.199604819334498 1.42252392230449e-06 2.13249518934462e-28 1.15008614798054e-16 8.20188932805453e-22 1.22806421845166e-43)
(0.000319188993388821 -2.94971997289905e-10 -6.42146076213166e-30 0.214174280589453 1.17229343252777e-06 2.13277106839279e-28 1.23665402785227e-16 6.76450586559289e-22 1.23200728850215e-43)
(0.000296305373984175 -3.96471591466742e-10 -6.58776227116377e-30 0.227663074059225 9.51104548594948e-07 3.15292071683754e-31 -3.67149885525682e-22 -7.78161370521059e-28 -5.13998547885487e-49)
(0.000270936897529558 -4.91129168960755e-10 1.54428452229407e-41 0.23996523830724 7.56547228459393e-07 1.21851797810411e-38 -4.11407964627958e-22 -7.08907884570418e-28 -1.85043602408162e-58)
(0.000243351755717125 -5.759372670827e-10 -8.85128171177475e-40 0.250985538297218 5.86910780642721e-07 1.10621717257478e-28 4.11407964632547e-22 7.08907884578324e-28 1.85043602410226e-58)
(0.000213848861854424 -6.48838407082104e-10 6.7029324484741e-30 0.26064350727946 4.40904581309028e-07 1.12993326769833e-28 -2.23540118758643e-22 -3.06673459943756e-28 -2.61492249022321e-49)
(0.000182737496538672 -7.07376405244569e-10 6.85625533454355e-30 0.268871809396722 3.17655351445991e-07 2.2110926323369e-28 -1.54954511499374e-16 -1.83044446644916e-22 -1.27383395669987e-43)
(0.000150362345410103 -7.49828583828397e-10 -6.70293244935506e-30 0.275618754383824 2.16493419567542e-07 2.22048159550272e-28 -1.59097073114932e-16 -1.25000649932333e-22 -1.28213563888008e-43)
(0.000117090345343942 -7.74776657509895e-10 -6.85625533484564e-30 0.280848552859386 1.36844040435372e-07 2.38648889475921e-31 -2.36534882988715e-22 -2.49825533650578e-28 -2.67473623051435e-49)
(8.33156749899046e-05 -7.81427171939835e-10 -3.05655626364754e-40 0.284542747070462 7.8095630255792e-08 9.97415441943948e-42 0 0 0)
(4.94492198702825e-05 -7.69568483313646e-10 6.67393913498414e-62 0.286700693205959 3.95113310315823e-08 -1.88746117979138e-63 0 0 0)
(1.59073594519508e-05 -7.39841877670469e-10 6.73562695097346e-62 0.287339969280923 2.01471842071518e-08 2.17874365722065e-60 1.61281196346519e-32 1.12931262217692e-39 1.22387032085049e-91)
(-1.69000308346469e-05 -6.9345320723836e-10 -6.67393913501351e-62 0.286495847160624 1.88169090888903e-08 2.20239081038276e-60 -1.60806897123887e-32 -1.0548850808414e-39 -1.23517813396257e-91)
(-4.85765281133404e-05 -6.32124073013778e-10 -6.73562695100197e-62 0.284220873464462 3.40806166298926e-08 1.61184451345788e-63 0 0 0)
(-7.87524010786387e-05 -5.58147548007335e-10 8.22004854192546e-41 0.280583829339097 6.42521324923453e-08 7.29520774979705e-39 0 0 0)
(-0.000107094028452449 -4.74159188768556e-10 8.22097176443236e-41 0.2756680359513 1.07431404887347e-07 1.73194807569978e-38 1.18549097800451e-22 1.91230431155603e-29 3.20695412659303e-60)
(-0.000133310585809238 -3.82986526097723e-10 1.60504533641507e-42 0.26956953191496 1.61549635993741e-07 2.68798862033436e-39 -1.1854909780002e-22 -1.91230431154907e-29 -3.20695412658136e-60)
(-0.00015716006970099 -2.87539985462987e-10 1.6098789985707e-42 0.262394951818654 2.24425028265737e-07 8.61071488192787e-40 1.12883232482976e-22 6.04388061118729e-30 3.26966382872662e-60)
(-0.000178452871641344 -1.90685499073152e-10 7.59288391229911e-30 0.254259248489263 2.93822516008382e-07 -8.25903285826046e-32 -1.12883232482961e-22 -6.04388061118648e-30 -3.26966382872618e-60)
(-0.000197053696857393 -9.51316349691047e-11 1.94650518410422e-32 0.24528333501753 3.67515484379879e-07 2.49147857847932e-28 1.41443165318335e-16 2.1198055049915e-22 1.43659763016524e-43)
(-0.000212881616047483 -3.33163371154356e-12 -5.69160710982932e-31 0.235591712068973 4.43344480085225e-07 6.07299340153516e-31 6.68651510702216e-18 1.24977437337452e-23 7.99114033783884e-47)
(-0.000225908398588831 8.25910825552307e-11 -1.94650519207751e-32 0.225310168521271 5.19270548255756e-07 2.29757467418595e-28 -1.23618443732554e-16 -2.84875340747961e-22 -1.26063155206925e-43)
(-0.000236155385297024 1.60894198493785e-10 -7.02372320140109e-30 0.214563606118614 5.93420714234891e-07 3.05597515118151e-32 2.42499295940871e-23 5.03701463448644e-31 3.42508519621296e-50)
(-0.000243689138609206 2.30244449302976e-10 -5.44521257975084e-42 0.203474052892466 6.6412370122576e-07 1.18458784888868e-44 0 0 0)
(-0.000248616207696159 2.89722491707254e-10 5.65060237502822e-42 0.19215889483847 7.29936317015512e-07 1.22926971432697e-44 0 0 0)
(-0.000251077210763401 3.3880945877027e-10 5.65240346432213e-42 0.180729362590373 7.89658347080593e-07 5.80718451454501e-41 1.94732594080547e-23 5.47607653645465e-30 5.51185701096924e-62)
(-0.000251240620354222 3.77356517818993e-10 -5.65060237503304e-42 0.16928928468804 8.42339109921893e-07 5.80411686689409e-41 -1.94732594181985e-23 -5.47607658077918e-30 -5.51185701129489e-62)
(-0.000249296474654605 4.05543543780264e-10 -5.65240346432675e-42 0.157934113300137 8.87273879269322e-07 -3.68898460434963e-44 0 0 0)
(-0.000245450112363475 4.23826932353973e-10 0 0.146750216592719 9.23993700222696e-07 0 0 0 0)
(-0.000239916449093789 4.32889638195487e-10 0 0.135814433840857 9.52247817694237e-07 2.12448317337819e-39 0 0 0)
(-0.000232914417698294 4.33577379817631e-10 0 0.125193850090466 9.71983632342329e-07 2.12780859268292e-39 0 0 0)
(-0.000224662477564769 4.26860814269794e-10 0 0.11494581162518 9.83319534799221e-07 0 0 0 0)
(-0.000215373949667475 4.13757257110897e-10 0 0.105118076032065 9.86522786026243e-07 8.73976026155822e-39 0 0 0)
(-0.000205254376182106 3.95338823489043e-10 0 0.095749203952818 9.81974777002878e-07 8.75369291651976e-39 0 0 0)
(-0.000194497371622127 3.72603183158172e-10 0 0.0868689337088882 9.70157928189264e-07 8.89649850007402e-39 0 0 0)
(-0.000183284629929144 3.46603050472023e-10 0 0.0784988934629697 9.51607275256997e-07 8.91057076584846e-39 0 0 0)
(-0.000171780999336582 3.18149444947466e-10 0 0.0706529946456262 9.26926862879908e-07 9.04880747545958e-39 0 0 0)
(-0.000160138763292331 2.88254680375674e-10 0 0.063338504652943 8.96702618868011e-07 9.06280583923639e-39 0 0 0)
(-0.000148489061661552 2.57359819321552e-10 9.05665902992729e-30 0.056556138489558 8.61594617725689e-07 2.95536898054368e-31 0 0 0)
(-0.000136954071544832 2.26572517840684e-10 3.62212925013511e-29 0.0503017452071958 8.22143068268013e-07 2.99420052640386e-28 2.9037732237948e-17 4.74321606391325e-22 1.7287405814375e-43)
(-0.000125628820877854 1.95661002527827e-10 -1.23009597637124e-32 0.0445655147798782 7.7904464272268e-07 1.20461598775744e-27 5.14116368793152e-17 8.98686946420567e-22 1.38957759860099e-42)
(-0.000114609022614825 1.66244249564353e-10 -3.62212925011619e-29 0.0393349735070743 7.32688276036591e-07 3.02878674898073e-28 2.26680651898102e-17 4.22462291316694e-22 1.74495501426278e-43)
(-0.000103951692133293 1.36796874686887e-10 -9.04435806832117e-30 0.0345921518133035 6.83862926990176e-07 -3.54162591671677e-31 0 0 0)
(-9.37343295800315e-05 1.10406692407838e-10 1.65478875955105e-39 0.030319447816698 6.32662550479462e-07 5.50143834097685e-38 -5.43156728762053e-23 -5.34518920484375e-28 -2.58187982171693e-58)
(-8.39713714764271e-05 8.29016750775899e-11 1.88329228455336e-41 0.0264924358904933 5.80145722052384e-07 5.54229972220877e-38 5.4315672875616e-23 5.34518920478576e-28 2.58187982168892e-58)
(-7.47364753372379e-05 6.09184912575034e-11 1.87937520435262e-41 0.0230918753269585 5.25876696750219e-07 5.56587513401347e-38 4.19327726725805e-23 5.45740235646134e-28 2.61123737207403e-58)
(-6.59896124646378e-05 3.47005206522028e-11 -1.67316061007727e-39 0.0200874698307328 4.71567265443315e-07 1.71122246420677e-38 -4.19327726722019e-23 -5.45740235641207e-28 -2.61123737205046e-58)
(-5.78246010973865e-05 1.88097715365562e-11 -1.67358251160279e-39 0.0174626819759441 4.15836551146852e-07 -8.37389284272606e-41 0 0 0)
(-5.01192223887292e-05 -8.26348705939008e-12 1.70847665044433e-39 0.0151801170911361 3.6176487489039e-07 9.29183502801087e-41 0 0 0)
(-4.30317150088832e-05 -1.48644182030796e-11 6.85129732330067e-39 0.0132323386305517 3.06335318775688e-07 1.79382854764675e-38 -2.50044489251235e-23 -5.48110767866478e-28 -6.67861287349044e-58)
(-3.62966436129338e-05 -4.74217597520073e-11 8.66966935483231e-42 0.0115703759613435 2.55192120009911e-07 7.03859225169613e-38 4.71769161642684e-23 1.09252153645563e-27 1.33639901037888e-57)
(-3.022156279669e-05 -3.7744111274891e-11 -5.11814784510173e-39 0.010206858992139 2.02576903190597e-07 1.7342965556814e-38 -2.21724672391867e-23 -5.44410768590171e-28 -6.68537723031091e-58)
(-2.42708267774945e-05 -8.50890798525552e-11 1.62205675132723e-41 0.00907064666737819 1.58469240652622e-07 1.78089783158919e-38 1.79207945238483e-23 5.34826925201201e-28 2.70468833590537e-58)
(-1.90767762720265e-05 -4.36171188225017e-11 1.57194392297054e-41 0.00821491198239237 1.12881853370766e-07 1.78112491023753e-38 -1.79207945241667e-23 -5.34826925210705e-28 -2.70468833595343e-58)
(-1.35711297774005e-05 -1.24665322149139e-10 5.27774233938959e-39 0.0075231354487601 8.19490919289992e-08 1.83254003433601e-38 1.53734991596666e-23 5.21696984157807e-28 6.83481865109859e-58)
(-9.08587864947017e-06 -1.89149172484574e-11 5.2925611789532e-39 0.00712920397339604 5.04584102988796e-08 7.23956509241982e-38 -3.00380886413268e-23 -1.04191816521346e-27 -1.77990649403365e-57)
(-3.47518620215518e-06 -1.72594779657857e-10 -5.24700450755282e-39 0.00682058545108612 3.9604306768876e-08 7.19734517605964e-38 2.905803368085e-23 1.02697595842709e-27 1.78346097306632e-57)
(3.99361318698748e-07 7.26459241581093e-11 -7.04143009640061e-39 0.0068931338122512 3.30767415807244e-08 1.76167079011954e-38 -1.43934441994097e-23 -5.06754777379196e-28 -6.87036344155027e-58)
(6.66299497084858e-06 -2.01830134791865e-10 2.19176957264653e-41 0.006925033440041 4.25317148031352e-08 5.50659360187736e-42 0 0 0)
(9.1604412949678e-06 5.39826822181229e-10 7.20583467884963e-45 0.00752486940227633 7.23812150482753e-08 1.83473706608282e-38 1.5659199406472e-23 5.38794443847811e-28 1.39351815293164e-58)
(1.2555061730623e-05 2.4401506776985e-08 8.53094082854379e-42 0.00781344986909528 6.5778716128288e-08 1.66761983356673e-37 9.79586577386429e-25 1.90388458612161e-27 6.65611631979189e-61)
(-7.76301573235252e-05 8.63146973621062e-07 -1.47227151525009e-37 0.00881252648814839 6.64226552526173e-07 1.35478214800598e-35 -1.10428492717848e-21 -7.5553735468075e-26 -1.67260601190405e-54)
(-0.000794447801085051 -2.0438741145532e-06 1.15427568540283e-34 0.00988421145674689 6.36491988479938e-05 9.8843423777344e-36 3.93453046421712e-23 6.34257204404757e-25 1.80723304458967e-53)
(-0.00161412380864201 -3.43713337305847e-05 -1.9022947689471e-34 0.0101248726485302 0.00025374031521774 1.17967109638284e-33 -3.96056037789387e-23 -6.38453298558725e-25 -1.81918926670366e-53)
(-0.00243951918996828 -0.000128777699934134 -2.17447428862198e-33 0.0102706926667255 0.000577877153496925 1.06162068666644e-32 0 0 0)
(-0.002902691297135 -0.000276565029917496 -4.60009118966609e-33 0.00922012939347271 0.000911556891397154 1.47355484901808e-32 3.81650271750599e-20 3.76946426386071e-21 6.09805907914619e-50)
(-0.00298548949534594 -0.000445010646367705 -3.80014896956299e-33 0.0076442253445479 0.00116742554981001 9.78582841094378e-33 0 0 0)
(-0.00249976019134085 -0.000533657463961952 -5.72371247930942e-33 0.00536122026480067 0.00116715531574966 1.3457670819482e-32 1.06400955548175e-23 2.22928129443195e-24 6.6142788975489e-53)
(-0.00165034493426552 -0.000479289405204031 -9.70222517950333e-34 0.00303467641200353 0.00089827311718672 3.94770937884458e-33 -1.10395937785733e-23 -2.31298297857465e-24 -6.86262184309693e-53)
(-0.000649514149268067 -0.000252866769190722 -2.28379598902103e-32 0.00101612422232301 0.00040883405967229 4.81580577468154e-32 9.353261521581e-21 3.75670751948553e-21 4.36487653393262e-49)
(-3.75437793395126e-05 -1.56709905235245e-05 -3.69781995422792e-32 2.69047414382852e-05 1.71969072789275e-05 5.45906723909062e-32 -2.670024205264e-22 -1.6470342938907e-22 -5.13850867820136e-49)
(-0.000618917683979606 -0.000219529050036495 -4.56738199083591e-33 0.000953107229297465 0.000349250551747746 -4.09525255562532e-34 0 0 0)
(-0.0033093813212282 -0.00152348261118006 -8.94430195488015e-33 0.00474775315709734 0.00220091736416564 1.23243093657738e-32 0 0 0)
(-0.00900259353722749 -0.00463628040334458 -1.30055112433196e-33 0.0123566736788133 0.00638085188112239 -1.08476427807323e-34 0 0 0)
(-0.0185510677970808 -0.0101729579942225 1.06390104128095e-33 0.0247882035787006 0.0136076050553512 8.09000189133873e-35 0 0 0)
(-0.0322287672326001 -0.0182594564749976 -2.74993410329991e-32 0.0424826467711033 0.0240789200587886 3.57505000809572e-32 -1.03538058384783e-22 -5.99413875407694e-23 -1.04023978206211e-52)
(-0.0493353123065241 -0.0285328306723196 -1.95940485401808e-32 0.0644748363198068 0.0373022453301686 2.38874072551518e-32 1.06846012363002e-22 6.18564645131283e-23 1.0734745691448e-52)
(-0.069806522005046 -0.0413177669272019 -5.24788198117458e-39 0.0902612450990428 0.0534502501447353 5.40834055546427e-39 0 0 0)
(-0.095260076226777 -0.0579633573055501 -4.14335085845672e-39 0.121526023151648 0.0739903396945464 5.25483441444788e-39 0 0 0)
(-0.126754260042071 -0.0797029839198689 -1.67129580582429e-32 0.159115669216383 0.100122802596083 2.08696219577678e-32 0 0 0)
(-0.168973847415113 -0.110279687125236 -1.60561608813038e-32 0.208155682314331 0.135958215208938 1.96803819016292e-32 0 0 0)
(-0.226666548555104 -0.154220188020662 -1.47294106546511e-32 0.273455094749181 0.186190144102163 1.84367749445142e-32 2.8142004465639e-18 1.91608226464077e-18 1.89509862881747e-49)
(-0.318743916025955 -0.225338378429158 -5.90014551901175e-33 0.376996709792203 0.266539128670467 7.55724431126784e-33 0 0 0)
(-0.472864866590483 -0.335748224336518 -6.6645875335397e-33 0.557980013439387 0.395792416744133 6.9974776086225e-33 0 0 0)
(-0.71448924736057 -0.485586559833289 -5.75149351924763e-34 0.86177526040001 0.584439373654339 -1.16622866508606e-35 0 0 0)
(-1.08546993929995 -0.668838164459312 -1.0991550182055e-32 1.37530761280666 0.844452192154236 1.38009690920939e-32 -1.39008713544605e-17 -8.53532879427408e-18 -1.39477957221158e-49)
(-1.64724663012021 -0.85966392082551 3.37892573862936e-34 2.26865797967377 1.17750934352959 -1.91454210794454e-36 -2.02014135733612e-22 -8.62524654881897e-23 -1.48306478130266e-54)
(-2.40759854881159 -0.962225716092543 -3.12252707443796e-33 3.79293935249273 1.50322954555198 5.31222748375518e-33 2.01303280519476e-22 8.59489569510187e-23 1.47784611514912e-54)
(-3.07091357226962 -0.797737731946367 -4.1921019128084e-33 6.01597735428964 1.54360025774253 7.5314624626668e-33 2.67392135742473e-17 6.86020663590046e-18 3.34592117754537e-50)
(-2.57376445319982 -0.324802848438893 -2.61170802457614e-34 7.32140140990491 0.902938201650489 4.05523847086999e-36 7.15348094942386e-22 6.20518067923663e-23 1.28719886355417e-55)
(-1.07756707354757 -0.0492006603162934 -1.62531711412635e-34 5.32543633064515 0.224420082937196 8.45026358156824e-34 -1.07269402022463e-17 -4.51961414615172e-19 -1.70234578144882e-51)
(-0.250210117423208 -0.00322532823960505 -1.89516384130162e-35 2.70668164751636 0.0252727666086057 6.93736547972386e-35 8.53506584677511e-23 4.89408513500033e-25 1.65165562297848e-56)
(-0.0220626795920183 -0.000107275524254167 -3.38517348414298e-36 1.01820571503413 0.000747531367125202 2.94100354689134e-38 -8.52420466379098e-23 -4.88785723293778e-25 -1.64955383088103e-56)
(-0.00278659415763037 -9.86725938666063e-07 -2.05350945838649e-43 0.457322181760783 2.6758558174794e-05 8.93468277446434e-46 0 0 0)
(-0.00524402800177871 -1.0060631190627e-07 0 1.0088616779448 3.1621969474685e-05 0 0 0 0)
(0.00407878425782671 5.21277373013419e-05 1.21532097134222e-43 0.916158905962974 3.53071760223057e-05 1.14443391082848e-41 0 0 0)
(0.0404246214238124 0.000211185465434907 3.93330340141759e-35 0.657449749056594 0.00215490609548269 4.99346546661576e-37 0 0 0)
(0.0130301710003649 0.000319040761273316 3.58723775409562e-36 0.123700079383637 0.00175319192771691 2.334978550846e-35 6.39853676084184e-20 1.43943159576886e-21 1.49165072939272e-51)
(6.85145795360366e-06 0.000671281468351929 -4.79940551902702e-34 0.000281354825597509 0.000834671256015338 -1.25651584580611e-33 0 0 0)
(0.0294136117393613 0.00859643439107603 2.12309050859164e-33 0.0555636129126157 0.0159740229426838 2.85695804694238e-33 0 0 0)
(0.0285754332011168 0.0113294077156214 7.01310815976231e-33 0.0462847470689627 0.0179188918541017 1.10221513315588e-32 1.91791469794487e-19 7.59151705037003e-20 9.43900135422299e-50)
(0.0170055324490237 0.00862907697675502 -6.79732952910124e-34 0.0244586546325685 0.0121686978224976 -3.85145878547278e-36 0 0 0)
(0.0102896099188845 0.00620484244003 -1.1308529245092e-34 0.0134847601614176 0.00803225842621862 -4.17835931502053e-33 1.36202472306705e-19 8.11336583633465e-20 -4.18416604168936e-50)
(0.00694761216472884 0.00467995204522256 6.07983858923311e-33 0.00856464072519853 0.00573105577175871 7.31583966935901e-33 1.60087471563294e-19 1.08276802927786e-19 9.52988890163339e-49)
(0.00525010692037136 0.0037119903015468 -2.17824744683619e-33 0.00628600220465868 0.00443603408861523 3.59329421340329e-35 -3.79884609822756e-24 -2.84765155151815e-24 1.99384833768257e-53)
(0.00401196136107985 0.00282130962272925 -4.62279352282619e-33 0.00480512706252441 0.00338502659894079 -6.63756579496787e-33 2.02115129998265e-20 1.4469282207297e-20 2.94315734785748e-49)
(0.00320899991282359 0.00217297605360567 5.07731194874331e-34 0.00390910800785867 0.00265651478303312 3.32439160639512e-34 -5.64210164057857e-20 -3.84894887474744e-20 -1.16178401315648e-49)
(0.00270034724978946 0.00176267655614011 -3.58862674440729e-33 0.00334814328516594 0.00219302437461321 -4.6939475475345e-33 4.78641207258334e-20 3.14491314614786e-20 1.21431916162813e-49)
(0.00238802413102932 0.00151233310208947 6.6570814533265e-33 0.00300391838515558 0.00190783130917834 8.06830502149328e-33 1.22485533497405e-20 7.84551341499521e-21 1.77530276099611e-49)
(0.00223727519220193 0.00138633158824732 1.12237829535563e-32 0.00284345175565429 0.00176589896301865 1.39912785950283e-32 4.00988550453903e-20 2.49353554470939e-20 2.68995926600624e-49)
(0.00222981154648845 0.00136007065068325 1.01162269570454e-32 0.00285408576570713 0.0017437614563295 1.46734496000287e-32 -4.00885455312834e-20 -2.44986903546285e-20 -2.79263714251685e-49)
(0.00233033021378102 0.00140640221360771 5.34592896991975e-33 0.00299759220844813 0.00181133170621535 8.77135782335034e-33 -2.26971866232616e-23 -1.36111986452149e-23 -1.31120619327074e-58)
(0.00250607188132921 0.00149847820024299 -4.75817427828377e-33 0.00323733700470354 0.00193879901840933 -6.19643558220229e-33 -2.40908039638957e-24 -1.23291792922517e-24 -1.52269607945777e-59)
(0.00267364543362954 0.00156569485239181 8.68859241142939e-39 0.00348690495650391 0.00204894018179038 9.18292195373149e-39 2.3647169031257e-23 1.39756826349114e-23 1.37877817244815e-58)
(0.002804986891798 0.00156855955334619 1.40036051398789e-32 0.00373863590872898 0.00210385592849941 1.62612456190009e-32 2.73837754172304e-23 1.48361499203076e-23 1.6097653762026e-52)
(0.00285937608262959 0.00148358626563173 -4.66204446516181e-33 0.00395069444554164 0.00206999629803815 -6.52020558532609e-33 -1.54102439245685e-20 -8.07350819900762e-21 -2.26835269316371e-49)
(0.00280113821823202 0.00130486346273752 1.06975112696198e-32 0.00407683532757959 0.0019264449218069 1.83774842823402e-32 2.70063345052007e-23 1.34480360389894e-23 1.52565475309024e-52)
(0.00261740623102197 0.00105267252350663 2.17987639666728e-33 0.00408867615707057 0.00167830485197147 -1.97907783139784e-34 0 0 0)
(0.00232960938073888 0.000771262242007486 1.29192976672805e-32 0.00399395222584127 0.0013612322675266 2.09430358522416e-32 -5.06664530840479e-20 -1.72961406048962e-20 -3.69549286159502e-49)
(0.00200890340880348 0.000519678029985343 -3.30691753565686e-34 0.00387434879851831 0.00104311617445086 3.58249449234199e-33 -2.37890441643482e-20 -6.41596710973045e-21 -4.82711017214959e-50)
(0.00170664674151347 0.000328608431446179 8.84714467802819e-29 0.00378931879168314 0.00076948727605154 1.76674278814446e-28 -4.28621634278976e-23 -7.55389544696918e-24 -1.28400789973843e-48)
(0.0014067077199732 0.000189433457365334 1.15427328918105e-29 0.00368837056940842 0.000535768182337794 2.96900264356628e-29 -2.4166201777191e-18 -3.5173716843173e-19 -5.02752572407256e-44)
(0.00116705945816898 0.000100767216423059 2.74618268775997e-30 0.00375752534768633 0.000362224956280855 4.30320620680987e-32 6.33210858676133e-20 6.04810123726121e-21 -8.22489621032997e-46)
(0.000942022216772652 4.48676525188335e-05 2.49295806078813e-29 0.00387797806255276 0.000224845052581089 1.05148181486848e-28 2.62429910393341e-18 1.51363647479079e-19 1.03712487321975e-43)
(0.000804944953867629 1.62063298452642e-05 -1.04586409586681e-29 0.00472556452273383 0.000136718547280567 9.13734036846025e-31 -4.20731095367605e-23 -1.71029491037034e-24 -1.59586826082361e-48)
(0.000671943040346021 1.77872716142717e-06 1.49706981340297e-29 0.00575680704154193 6.56427755119982e-05 -1.23817931591183e-30 -7.95786336917678e-23 -3.20492189815656e-25 -2.26544453504592e-48)