/*--------------------------------*- C++ -*----------------------------------*\
| =========                 |                                                 |
| \\      /  F ield         | OpenFOAM: The Open Source CFD Toolbox           |
|  \\    /   O peration     | Version:  3.0.1                                 |
|   \\  /    A nd           | Web:      www.OpenFOAM.org                      |
|    \\/     M anipulation  |                                                 |
\*---------------------------------------------------------------------------*/
FoamFile
{
    version     2.0;
    format      ascii;
    class       volTensorField;
    location    "30000";
    object      grad(U);
}
// * * * * * * * * * * * * * * * * * * * * * * * * * * * * * * * * * * * * * //

dimensions      [0 0 -1 0 0 0 0];

internalField   nonuniform List<tensor> 
21000
(
(-0.0101060678019966 -0.00126345965930103 0 9.20854306572648 0.0208794809060718 0 0 0 0)
(0.0764126130833149 -0.00830631935149322 2.67649016048156e-21 8.94619725520952 -0.0855749242194649 2.32422624568867e-23 0 0 0)
(0.546441439909096 -0.0490419499361416 1.68003052187123e-21 7.5087302433612 -0.535653544492453 5.46813711877375e-20 -1.12406111815376e-21 1.25073531134422e-22 2.02151245779619e-42)
(0.409658738273442 -0.0690800905387546 -8.78616492883073e-17 2.63563583055078 -0.417881733469307 -3.31596239150065e-16 -5.31076564992706e-18 8.41980837288333e-19 6.67250873421117e-34)
(-0.393125303702815 0.159862724565012 -1.51756560070604e-16 -0.928478638942039 0.382408158447278 -4.34842292171401e-16 0 0 0)
(-1.37278366143655 0.712462135243976 2.35939675426519e-17 -2.64236010084998 1.35655503725889 3.66304079891336e-19 0 0 0)
(-1.36025950020897 0.863008077735588 -7.54624475383886e-16 -2.14859232586224 1.35017560812961 -1.17723160475726e-15 2.01819238506469e-17 -1.26815153058038e-17 1.1054907065088e-32)
(-1.07000287585843 0.774164574590091 -5.39073706500165e-17 -1.48010571373286 1.06433059926669 1.5042449431745e-19 2.72397296525758e-22 -1.81127582405844e-22 1.5732421287571e-41)
(-0.839881662883186 0.661421444579534 -5.31860205982693e-16 -1.0655016195128 0.836063284902758 -7.36942346863302e-16 -1.07711615431477e-17 8.45188582580478e-18 -7.44637803896025e-33)
(-0.688780093448382 0.571238671727675 -1.14613978576191e-15 -0.829194641150603 0.686351216374373 -1.43842821011856e-15 8.54584067042608e-18 -7.07382422304806e-18 1.48111094050799e-32)
(-0.59092795115619 0.501126736043092 6.73524775146654e-17 -0.694880008670324 0.588924771383039 -2.39729968718242e-18 -3.63619173945834e-22 3.124034746505e-22 2.8536201473354e-36)
(-0.502992927546903 0.425384770980716 3.16666718578859e-16 -0.592899239895094 0.501649788989469 3.6339848124141e-16 6.15704766818223e-18 -5.20938748249878e-18 -3.78506242850474e-33)
(-0.435327475878475 0.360991659092027 7.20281153885202e-16 -0.523371822826473 0.434445874095957 1.09149697576612e-15 6.91645626564525e-22 -5.80080413050706e-22 -3.46130220591749e-36)
(-0.387060707253502 0.314798862194335 -1.42633298679505e-15 -0.47483791150224 0.386576288458074 -1.829887476819e-15 -1.16435662254087e-21 9.41967832207209e-22 8.8836800818631e-38)
(-0.353672871158893 0.282940285369799 -2.25550621864684e-16 -0.441420931126508 0.353447293713666 -3.68251627337596e-16 4.47303252105604e-18 -3.58145562371838e-18 3.69118883714376e-33)
(-0.333629866857144 0.263490420563621 -9.39941387472695e-16 -0.422192982534448 0.333677061997196 -1.10558774585827e-15 0 0 0)
(-0.325669984922204 0.254656666441719 9.41861176870392e-16 -0.416482425638586 0.325852431584577 1.11037248574412e-15 0 0 0)
(-0.326485943775734 0.253535136710866 5.07620467859129e-16 -0.420673886215695 0.326811766738837 7.55826490177056e-16 -2.11174373492995e-21 1.63894081218062e-21 -1.40709481702165e-37)
(-0.332819782300269 0.257137047625019 -6.50885432999241e-16 -0.431015687887211 0.333164431105466 -7.45336483596384e-16 4.2012703260709e-21 -3.24884516204846e-21 7.38532719762615e-36)
(-0.337085271476246 0.257881865246047 7.17020545289536e-17 -0.440639923136234 0.337459205511182 -7.39236866109584e-18 -2.08803133270326e-21 1.60910986689748e-21 -7.02401105763297e-36)
(-0.336705623020824 0.251996059697138 -8.24118825681425e-17 -0.449523099684457 0.337095457596552 4.91425782869468e-18 -2.20155398821952e-21 1.62766989452178e-21 -7.40731060528074e-36)
(-0.329359961792918 0.237890206006269 2.70913580664892e-16 -0.455164004386381 0.329773958071554 3.81350107515981e-16 -4.43230146000713e-18 3.21070147986431e-18 3.72484401760883e-33)
(-0.313348465562656 0.21504611561136 7.69118329033087e-17 -0.455197212233089 0.313811075167616 -9.48237236688246e-18 -4.21681281388252e-21 2.91338968007104e-21 -7.034120223051e-36)
(-0.288297826483394 0.184500824508979 6.62822522487369e-19 -0.448420181680532 0.288844755207302 7.66501053993903e-19 2.03576672926076e-21 -1.36748290146354e-21 6.75803379165547e-39)
(-0.255606219439229 0.148998242854522 7.60602258722672e-16 -0.435562228333873 0.256271022884526 1.2162257514524e-15 0 0 0)
(-0.220058977380527 0.113790062711347 5.9498662414862e-16 -0.421677856769325 0.220871903169475 1.04457079594332e-15 0 0 0)
(-0.185945999404812 0.0832711705049671 1.57557251525418e-16 -0.4100788514443 0.186861654220419 4.41427179524075e-16 3.29799871390595e-21 -1.42214191312082e-21 -7.32020370186876e-36)
(-0.152057335109314 0.0571867239429812 2.86833089608521e-14 -0.396737513876771 0.152989542655758 7.4826882103814e-14 -3.19248693369198e-21 1.37664379805558e-21 7.08601085004731e-36)
(-0.122433881330071 0.0369750702751297 -3.88449640798623e-16 -0.393770088966363 0.12351743289408 -1.24837220387961e-15 0 0 0)
(-0.0932360574287935 0.0209306991993669 -2.03821818999506e-14 -0.390676324771212 0.0940290481909357 -8.61475459571551e-14 0 0 0)
(-0.0699763335956451 0.0100681113636242 -1.13963214956707e-17 -0.428967013723764 0.071311772209286 1.86982985650773e-18 -3.16103946455128e-21 4.03470839280325e-22 -1.83436858722766e-36)
(-0.0427487635975065 0.00211238005883666 6.71118500667677e-15 -0.45823588157536 0.0428149375790513 -6.70926494315591e-16 1.17197101082439e-21 -3.09243159788638e-22 5.25484354679462e-34)
(-0.0208603532873816 -0.000533234293440644 6.43617454857372e-15 -0.656425076861222 0.0228384157821417 -3.54430260316423e-14 3.77417599731923e-16 -1.31170155253025e-17 2.07623027992232e-29)
(-0.0165730150306469 -0.000155221058377406 -6.72662192325306e-15 -0.99714762585352 0.0174427838956134 -3.13917081820437e-14 5.77642168242371e-16 -1.00711291995768e-17 1.77986191269241e-29)
(-0.0171534773851118 3.23170309574082e-05 -6.83006327859261e-15 -1.31669701950676 0.018905815959394 5.33977836056263e-16 -5.64506427937216e-21 2.01815403188015e-23 -2.72738195020757e-42)
(-0.018256391724628 2.63011315151811e-05 -2.27439840314022e-23 -1.67843048864161 0.0197314325061717 9.30507288794611e-19 5.64506427937211e-21 -2.01815403188013e-23 2.72738195020754e-42)
(-0.018372362811188 2.687524355729e-05 -9.0671172923943e-20 -2.03467242922514 0.0201985316960395 -9.24589100765075e-19 -8.50295833516986e-21 2.43305333205188e-23 -7.07896050288793e-39)
(-0.0182945398012051 2.08705166190165e-05 9.05650203035612e-20 -2.39654874650875 0.0200808533498625 -7.24183556288879e-21 -1.42739924448249e-21 1.62838529843648e-24 7.06617619041334e-39)
(-0.017708657927983 1.80469457027614e-05 1.81622753105504e-19 -2.74477679719422 0.0196415823001249 -1.31919793681893e-20 -1.38168684328079e-21 1.40808115105696e-24 1.41707954056625e-38)
(-0.0169597190286253 1.3695907566585e-05 2.27915611757255e-22 -3.08026202849982 0.0189022371058845 4.96163152751249e-19 2.39473410506115e-20 -5.58025986040712e-23 -2.83338049006801e-38)
(-0.0160146061973176 1.08002050052613e-05 -2.72459058642823e-19 -3.39613679636413 0.0180176341378151 1.3858213377588e-18 1.24951144085242e-21 -8.42666972347153e-25 2.12581381486053e-38)
(-0.0150172075146208 7.70268991021569e-06 -1.36092038283509e-22 -3.69255110378086 0.0170295740451774 -2.3032870922507e-18 -1.38848080684222e-20 2.92782658062314e-23 -7.08234434094427e-39)
(-0.0139780576826326 5.26590431996665e-06 1.82309511053864e-19 -3.96777662353405 0.0160099811028689 1.35679215700514e-18 0 0 0)
(-0.0129492853503243 2.85526424361841e-06 2.26246342529551e-22 -4.22244173724754 0.014978327686169 9.38929065076081e-19 1.71574577450485e-20 -3.05128944922274e-23 -7.14906827469897e-39)
(-0.011934875880242 6.98406650423869e-07 -2.7481484811937e-19 -4.4566259259559 0.0139585837996348 1.74692769524358e-20 9.31197668789587e-22 -5.449194874578e-26 2.14419444730896e-38)
(-0.0109479587911904 -1.44822915520103e-06 -6.83986062394537e-15 -4.6710884188802 0.0129530668247509 3.55233168551936e-16 -3.7031506028532e-20 6.10217773523259e-23 -5.33696663390641e-34)
(-0.0099852596114638 -3.52174071305801e-06 -6.92767942234655e-15 -4.86632178520517 0.0119648842670144 3.35607094569954e-14 -2.79952156854732e-15 6.88947514930674e-18 1.95653216681708e-29)
(-0.00904633489253316 -5.60387442083798e-06 6.83995273232777e-15 -5.04293660115243 0.010989847435123 3.1147278381988e-14 -2.9160122005803e-15 6.34947989192949e-18 1.7772695315204e-29)
(-0.00812620157219553 -7.66490281535668e-06 6.92795579033846e-15 -5.20137097194554 0.0100249834753633 -3.30625079342706e-16 2.04277572547057e-20 -2.97423808650664e-23 5.40527090988465e-34)
(-0.00722176271063198 -9.71878923701657e-06 -1.85276447073508e-19 -5.34203364372522 0.00906591557243678 9.63158740745679e-19 2.16252551339845e-20 -2.83860489112899e-23 -9.70702248206098e-43)
(-0.00632951647622929 -1.1738909188316e-05 -4.61367748551513e-20 -5.46523088881242 0.00810988292365046 -8.95801251339155e-14 -2.16252551342257e-20 2.83860489116065e-23 9.70702248216924e-43)
(-0.00544758710988881 -1.37123347275327e-05 6.98825137411033e-15 -5.57123382413161 0.00715474056840666 -9.09125800511126e-14 1.12720714488178e-20 -1.32001302170857e-23 -2.72621202889256e-34)
(-0.00457485929456573 -1.561260978199e-05 7.06758329775406e-15 -5.66027262100226 0.00619988401400148 -3.36527920875677e-14 3.25828726273343e-15 -3.56841496478262e-18 1.95686722694098e-29)
(-0.00371147180998792 -1.74197575336722e-05 -6.98811124263848e-15 -5.7325741126529 0.00524570855045015 -3.19235530842285e-14 3.31247446923653e-15 -3.03181450574017e-18 1.82719625806484e-29)
(-0.00285836322547255 -1.91104801444645e-05 -7.06763011526952e-15 -5.78837134356676 0.0042937450456 2.45786299523109e-16 1.15953346434988e-20 -1.19114840784606e-23 -2.75721536449546e-34)
(-0.00201736805262746 -2.06630976803827e-05 -4.71896241597478e-20 -5.82792504285161 0.00334639174096938 1.53989181865396e-21 0 0 0)
(-0.00119097550555679 -2.20560303562178e-05 -6.973028528389e-31 -5.85153496426864 0.00240690429127175 1.97204685070046e-32 0 0 0)
(-0.00038212623925175 -2.32752705649358e-05 7.00518056626508e-31 -5.85955160995652 0.00147903838474402 3.23191640827266e-30 -3.2886983707794e-31 8.29570271569473e-35 1.82524461739116e-61)
(0.000405980632786753 -2.43081093716485e-05 6.97302852838974e-31 -5.85237966593839 0.000566869901116027 -3.28336579603181e-30 3.28466112073491e-31 -3.17598001174733e-35 1.83364495981095e-61)
(0.00116994334467818 -2.51434282114445e-05 -7.00518056626516e-31 -5.83048418512357 -0.000325262479931986 1.67634905312513e-32 0 0 0)
(0.00190636288931121 -2.57768417643175e-05 -2.44718900245215e-20 -5.79439242361286 -0.00119297122422819 7.28013619735116e-19 0 0 0)
(0.00261196593427961 -2.62077271285069e-05 2.44732642478291e-20 -5.74469096324362 -0.00203200212644259 -1.34506879321709e-18 -5.80458369601421e-21 2.31710908825051e-24 2.680533738555e-44)
(0.00328368094097094 -2.64382066446599e-05 -2.37763830379146e-22 -5.6820228279132 -0.00283830440467767 6.17025843437035e-19 5.80458369599309e-21 -2.31710908824208e-24 -2.68053373854525e-44)
(0.00391872307627151 -2.64736169724777e-05 2.38463149390017e-22 -5.6070825781993 -0.00360813663077408 -2.53786083778797e-19 -5.66409497417235e-21 1.28502112817666e-24 4.04461208921838e-44)
(0.00451464842305889 -2.63221968458243e-05 -7.43759041640131e-15 -5.52061033567705 -0.0043381310674657 8.1154954078921e-17 5.66409497417159e-21 -1.28502112817649e-24 -4.04461208921784e-44)
(0.0050693980204696 -2.599481727821e-05 -3.76605451753733e-16 -5.42338499171579 -0.00502535479081379 3.50210098096061e-14 -3.12639171371363e-15 -2.89885044600289e-18 2.02466019970964e-29)
(0.0055813257918132 -2.55044955976068e-05 1.45910399130916e-14 -5.31621674350407 -0.00566734643666638 1.31917419650983e-15 -1.52234339732804e-16 -1.59738473250189e-19 2.53805423311078e-32)
(0.00604921153837318 -2.48660130870017e-05 3.76574441529848e-16 -5.19993939782201 -0.00626213927694655 -3.34400354515375e-14 2.85336181151807e-15 3.43553702926876e-18 1.83283411668541e-29)
(0.00647226127523042 -2.40954063574762e-05 -7.15342478702339e-15 -5.07540253825387 -0.00680826902972802 3.10593713734607e-17 -1.31257183556843e-21 -1.79495536845852e-25 3.48833048580573e-35)
(0.00685009601458656 -2.32095859875193e-05 6.29850880437915e-21 -4.94346391017167 -0.00730476568340186 -1.37021959868595e-23 0 0 0)
(0.00718273192435616 -2.22258717702363e-05 -6.41619707631146e-21 -4.80498207474076 -0.00775113951285226 -1.39582229001267e-23 0 0 0)
(0.00747055121576363 -2.11616266208298e-05 6.41721955341944e-21 -4.66080958453577 -0.00814734908646907 -6.58840975714288e-20 -1.17614995570878e-21 -6.21753151405543e-25 4.98606465997749e-45)
(0.00771426822136044 -2.00339124075753e-05 6.416197076306e-21 -4.51178674553324 -0.00849377073474098 6.59504385570337e-20 1.17614995597034e-21 6.21753151862836e-25 -4.98606096101039e-45)
(0.0079148914850128 -1.88591943227944e-05 -6.4172195534247e-21 -4.35873606420631 -0.00879115372872979 -4.18813417773863e-23 0 0 0)
(0.00807367905820413 -1.76530259148421e-05 0 -4.20245742191957 -0.00904057776166369 0 0 0 0)
(0.00819209905145358 -1.64300070375936e-05 0 -4.04372415061972 -0.00924339974894952 3.92566735054962e-19 0 0 0)
(0.00827177880931937 -1.5203341543246e-05 0 -3.88327967011731 -0.00940121269934179 -3.92873854114608e-19 0 0 0)
(0.00831447223203678 -1.39852328422065e-05 0 -3.72183538184566 -0.00951578051058895 0 0 0 0)
(0.00832199673682049 -1.27859420992097e-05 0 -3.56006854910846 -0.00958901400063025 -7.96226463993391e-19 0 0 0)
(0.0082962254902881 -1.16152661399102e-05 0 -3.39862238766766 -0.00962287720643502 7.9686087103289e-19 0 0 0)
(0.00823898973918986 -1.0479989669185e-05 0 -3.23810437993709 -0.00961941872408786 8.03334471352871e-19 0 0 0)
(0.00815213720657178 -9.38819144602039e-06 0 -3.07908966843125 -0.00958059165141724 -8.03969567808462e-19 0 0 0)
(0.008037335224323 -8.3422159654371e-06 0 -2.92211765216955 -0.00950844063650764 -8.10181873327559e-19 0 0 0)
(0.00789629876559994 -7.35033264427934e-06 0 -2.76770191623899 -0.00940467142491145 8.10808300502462e-19 0 0 0)
(0.00773032937469558 -6.40806146187113e-06 -8.12296028612325e-15 -2.616319544942 -0.00927126059155563 -2.65068440585751e-16 0 0 0)
(0.00754096974150546 -5.5282827910493e-06 -1.62447223489089e-14 -2.46843632105062 -0.0091093442023585 3.79707355360346e-14 -1.42634195803175e-15 -5.2597974937498e-18 2.17487636081286e-29)
(0.00732887285348927 -4.69372019420089e-06 5.51826889077879e-18 -2.3244745978844 -0.00892092893341956 7.88468812779722e-14 -2.68148803869146e-15 -1.02906247545923e-17 9.09875984841665e-29)
(0.00709549975289545 -3.93173058576559e-06 1.6244722348824e-14 -2.18487619397258 -0.00870602448947177 4.1019111630302e-14 -1.25765234588307e-15 -5.01459495585619e-18 2.38426043819275e-29)
(0.00684037675181786 -3.1985073108257e-06 8.11755180166382e-15 -2.05001373781795 -0.00846712729034717 3.17865806215093e-16 0 0 0)
(0.00656527168714633 -2.55728572892949e-06 -1.09799813460217e-19 -1.92034588204731 -0.0082020363401189 2.78214285740286e-18 7.85414528584705e-21 2.4651080343439e-23 1.19358209836039e-42)
(0.00626764721998632 -1.90711126010652e-06 -2.20192158295888e-19 -1.79618772045841 -0.00791497675196937 5.31637299067418e-19 -7.85414528576184e-21 -2.46510803431715e-23 -1.19358209834744e-42)
(0.00595065042068754 -1.39351611031213e-06 2.20221375306564e-19 -1.67808872286542 -0.00759930666986576 -2.79431456425831e-18 -6.90083413346549e-21 -2.49086059805807e-23 1.08602337350322e-42)
(0.00560774128400571 -7.9152333433133e-07 1.10407642614115e-19 -1.56626190339439 -0.00726393148288055 1.13961775391054e-18 6.90083413340318e-21 2.49086059803558e-23 -1.08602337349342e-42)
(0.00524603284415361 -4.27828652893075e-07 -1.10421561844926e-19 -1.46149034167012 -0.00689306832718602 -5.52502383363409e-21 0 0 0)
(0.00485084410355692 1.88135787242705e-07 1.11566766188904e-19 -1.36375011542908 -0.00650690943742193 6.06774453584924e-21 0 0 0)
(0.00443940342390135 3.37996716168824e-07 -2.23417263762321e-19 -1.27434775871153 -0.00607082312748455 1.13346106087626e-18 5.32913232485859e-21 2.49626932095655e-23 8.72693806263589e-39)
(0.00397991010442701 1.08396589614679e-06 2.82714722547028e-22 -1.19267056475035 -0.00563068876003037 -2.29485142304612e-18 -1.03477391739243e-20 -4.98408118893487e-23 -1.74318178070098e-38)
(0.00351351235833306 8.61474966405807e-07 1.11047794002013e-19 -1.12115767473773 -0.00511241506479214 1.15528050182735e-18 5.01860684907511e-21 2.48781186798299e-23 8.70487974439027e-39)
(0.00297228331090088 1.96374234131424e-06 5.27036534085071e-22 -1.05776551986607 -0.00461925888233162 -1.15406742004216e-18 -4.51256406583259e-21 -2.46576860753673e-23 5.49883306959413e-43)
(0.00245113762873442 1.00136488715151e-06 -5.08437938528115e-22 -1.00735045942585 -0.00399312732851444 1.15413875522356e-18 4.51256406591277e-21 2.46576860758054e-23 -5.49883306969184e-43)
(0.0018071466649082 2.9223407439221e-06 1.13631417813272e-19 -0.964532838065929 -0.00346502342178336 -1.15165933941868e-18 -4.18031893429356e-21 -2.43515458548547e-23 8.82677113628357e-39)
(0.0012489248466002 4.3622616157833e-07 -1.13618207382514e-19 -0.939250234583488 -0.00269344219385241 2.3135689854539e-18 8.26319270725301e-21 4.86690559318062e-23 -8.78868176557632e-39)
(0.000482975908148596 4.13995169537802e-06 -1.12639408731225e-19 -0.918744098975121 -0.00219354052711925 -2.33433377857319e-18 -8.1280642013456e-21 -4.83120077146276e-23 -8.86467020766542e-39)
(-5.61591438192709e-05 -1.66888796519997e-06 2.26496115081754e-19 -0.923364566376968 -0.00121786522882652 1.18086730660989e-18 4.04519042844776e-21 2.3994497638042e-23 8.82658083704895e-39)
(-0.000918384592679839 4.99126004134025e-06 -2.27439139086897e-19 -0.924934057718149 -0.000939619928920498 -1.70708898854657e-20 0 0 0)
(-0.00125633604210584 -1.18928165286007e-05 -2.29124899102055e-22 -0.963271191789853 0.000272460769931101 -1.17183736177402e-18 -4.21925089374161e-21 -2.46631914705738e-23 -8.91803569075667e-39)
(-0.0016502986230667 -0.000300974694065908 2.28393317035361e-19 -0.980269800433495 -0.000508494861185602 3.4937799637363e-18 -1.28761643273516e-22 -2.34830203758242e-23 1.78199862758859e-38)
(0.00894627610678497 -0.00224359038809599 1.14512987816085e-19 -1.03854033951505 -0.0095285931389068 -3.01603171721095e-17 1.32513405753478e-19 1.20030794117009e-21 3.71222359733852e-36)
(0.0879976186244239 0.00289995453838372 -2.88827994885481e-17 -1.09628655656318 -0.0888641723669411 -4.8209657453371e-18 -9.45143917904417e-21 -1.14549987683584e-21 -4.56970889060593e-36)
(0.176771148232367 0.0234391926974018 4.79554829426014e-17 -1.10821482333154 -0.17558387203956 -2.95952636706151e-16 9.51396764290765e-21 1.15307823038576e-21 4.59994099302123e-36)
(0.265741893609971 0.0583434247855508 1.78369312688033e-16 -1.11733302461644 -0.264118234764453 -8.75409694486506e-16 0 0 0)
(0.334897843109886 0.100334529006291 -8.52872549210707e-17 -1.06182163054314 -0.331747095346075 2.79244960893869e-16 -4.39523582083698e-18 -1.37166114603067e-18 1.15534241749938e-33)
(0.380472343701726 0.143444915949238 -3.20896791539412e-16 -0.972023869933687 -0.376456687053909 8.42475172875447e-16 0 0 0)
(0.383485202714229 0.173349986587353 5.74707949989039e-16 -0.820941263104204 -0.378396481990048 -1.38593408875076e-15 -3.63232612936423e-21 -1.67167929042337e-21 -9.11807030270574e-36)
(0.34068394126611 0.179454243618762 2.34687843296484e-16 -0.626089775447653 -0.334869912211284 -5.45721941433532e-16 3.76870722005149e-21 1.73444497742051e-21 9.46042182306983e-36)
(0.235812910286679 0.143220813581208 -2.83374484969615e-17 -0.372430196900073 -0.229663384615018 5.41790741177396e-16 -3.42569662160668e-18 -2.11085634855809e-18 4.72605229126278e-33)
(0.056391213537902 0.0450239571563105 -1.22783897423117e-15 -0.0558622632130504 -0.050711556830281 2.07942231646248e-15 5.39730552127686e-19 4.85571725010029e-19 -1.94422362245476e-32)
(-0.197376338312892 -0.122513300282897 -1.16790521009662e-16 0.32153328876616 0.201900017254548 -1.22148651651874e-17 0 0 0)
(-0.522840436394833 -0.359569884299895 -7.2929658046477e-16 0.760996210789986 0.525251714235197 1.0049141629875e-15 0 0 0)
(-0.911369664978214 -0.658172266216432 -1.03587941493846e-16 1.25928961188164 0.911115098287503 -1.17062954803522e-17 0 0 0)
(-1.35589724739003 -1.00727936229704 -9.6706185171717e-17 1.81862496575221 1.35214511433394 -5.84041514716594e-18 0 0 0)
(-1.83415203508062 -1.38242213628755 -3.61816223216878e-16 2.42310076593733 1.82696777780036 4.76550565724087e-16 -1.31600898269343e-20 -1.00115883610017e-20 9.35806854015048e-36)
(-2.31971204958774 -1.76423987707942 1.22018682456712e-15 3.03520804261132 2.30931080072208 -1.44639157622769e-15 1.35805436404967e-20 1.03314501979312e-20 -9.65705096785636e-36)
(-2.82136527893839 -2.16885514412329 6.42360994544478e-19 3.65022909766323 2.80767664740625 -6.98547430003831e-19 0 0 0)
(-3.37482475021175 -2.6286494939554 -5.531379994748e-19 4.3064603233258 3.35688454352137 7.01521231214698e-19 0 0 0)
(-3.99285557983624 -3.16002949826147 1.13819486218349e-15 5.01244945930689 3.97056579808644 -1.42127422358531e-15 0 0 0)
(-4.73839288765103 -3.81883060828019 1.1457218779848e-15 5.83679257634821 4.7088232092956 -1.40431375156392e-15 0 0 0)
(-5.65116513259092 -4.64903157107067 -1.22836858176853e-15 6.81698993304239 5.61353422949828 1.38092324618871e-15 7.01686622091368e-17 5.77792512294852e-17 1.42408538530998e-32)
(-6.90627979830304 -5.7917005406573 8.56640965698321e-16 8.16826064610899 6.85201766828871 -9.14634765814832e-16 0 0 0)
(-8.60826465259101 -7.23604546640607 -6.97007040802907e-16 10.1586560616733 8.53202828761373 9.05175443581473e-16 0 0 0)
(-10.7082460816205 -8.80961358949526 -7.4068540445985e-17 12.9171045102694 10.6044007881688 -1.50141002184817e-18 0 0 0)
(-13.1781828253904 -10.329611893906 1.03836463772617e-15 16.6990365773485 13.0421264385201 -1.30376418133235e-15 -1.68817515509772e-16 -1.3184947885493e-16 1.31763523952008e-32)
(-15.925128710759 -11.5009678281777 5.4444972177874e-17 21.9370891024652 15.7514696200564 -3.02250358197805e-19 -3.94173419376239e-21 -2.59075779244895e-21 -2.38761418342681e-37)
(-18.3791300860608 -11.6406851882988 -5.97437398973938e-16 28.9655322960373 18.1748260425191 8.56333919156469e-16 3.92786386585589e-21 2.58164133295646e-21 2.37921255358308e-37)
(-18.9430254627477 -9.71422063138275 6.06260777683694e-17 37.1270786191576 18.741823255785 -2.226321213089e-16 1.65029509339407e-16 8.32974614349193e-17 -9.93094430794445e-34)
(-14.5823426228775 -5.25424047243159 5.71551743974616e-17 41.3961336834082 14.4775869521171 -9.34269019609989e-19 1.02032256096712e-20 2.84372908955975e-21 9.63708619542707e-38)
(-7.21233100257536 -1.58786933708297 1.30086571147553e-17 35.3474563271098 7.20929288584956 -9.09226105740647e-17 -7.12004693427904e-17 -1.45190075587899e-17 1.83238339086266e-34)
(-2.37670816405225 -0.28718621609305 -1.41057198875298e-18 25.1106149764533 2.38494923582405 -1.01407833649373e-16 2.38153770199818e-21 1.44466496243156e-22 -2.42516736379945e-38)
(-0.354885006099766 -0.03095600391148 4.97188506918933e-18 15.2793121570306 0.379898707608047 -5.50750467836848e-20 -2.37850710830045e-21 -1.4428265735088e-22 2.42208124976374e-38)
(-0.0706238441372385 -0.00261864043000047 -1.22317801860537e-21 10.1981914542103 0.0626546126884793 5.32196602664977e-24 0 0 0)
(-0.0523001771666675 -0.00613926546184475 0 10.094842277946 0.0659306624234459 0 0 0 0)
(0.036901368870317 -0.0209809458535931 4.25966747875295e-22 9.56153607261828 -0.0506085028558172 4.0112102288124e-20 0 0 0)
(0.441154299779783 -0.0483811933187553 -1.70560966963725e-17 8.10840715732243 -0.430764422447359 -2.2886044660733e-19 0 0 0)
(0.405075347459899 -0.0441942778636194 -1.54420470992139e-18 3.71154990880682 -0.403057227366588 -1.006740565733e-17 5.14990406897025e-18 -8.16425524581661e-19 -6.46901957426003e-34)
(-0.238807544252547 0.161684625098944 1.64992863249983e-16 -0.0569141511746882 0.25430661188723 4.21719060385715e-16 0 0 0)
(-1.15820895949429 0.64468955435251 2.40528824911066e-16 -2.14253681133448 1.17233116386703 6.16646017744643e-16 0 0 0)
(-1.22819260380635 0.782567346679768 7.31419585986749e-16 -1.99116704749135 1.23809707437694 1.14112320690015e-15 -1.95557664295458e-17 1.22880725987057e-17 -1.07117772705872e-32)
(-1.00196651997499 0.716063274094418 7.71421356229722e-17 -1.43533753415744 1.00808077874243 4.49164932832524e-19 0 0 0)
(-0.801119064616027 0.622853228756773 3.94909305536124e-16 -1.04643760558976 0.804684154050064 7.15756021776413e-16 -1.05711766149721e-17 8.12939011827689e-18 7.21265293160862e-33)
(-0.66352165175023 0.544806192738285 2.59327243250405e-16 -0.81629678678898 0.666179279571298 3.14874328608072e-16 -2.49609948055629e-17 2.05640342881348e-17 -2.54523880892086e-32)
(-0.572148745527678 0.480745973849002 7.55513699618493e-17 -0.68434875525476 0.574021862921208 -6.13088952219672e-19 1.05849230752791e-21 -9.10335911823517e-22 1.86468613697933e-37)
(-0.490386256178059 0.410257562773422 -2.06390848018197e-16 -0.58673536945802 0.491721470915004 -3.54231838687795e-16 -5.96660512268517e-18 5.04825363832455e-18 3.66400146725024e-33)
(-0.426730592209611 0.350087186679454 1.94145300824986e-17 -0.519376702865296 0.427553744075659 3.40060701046344e-17 1.05567970530261e-17 -8.72573425030405e-18 -1.114910149113e-32)
(-0.38115532091175 0.307035076925526 3.52740000457754e-16 -0.472215386142031 0.381650807529882 6.86672841772991e-16 -9.50226275410855e-18 7.70694388889356e-18 -1.11396495479761e-32)
(-0.349912247361532 0.277725386812054 -1.49333335205004e-15 -0.439823801794868 0.350066565337853 -1.85399561595132e-15 -4.33909833563226e-18 3.47421130522207e-18 -3.59777832782148e-33)
(-0.331485886808644 0.260402645917807 1.05443115756859e-15 -0.421004215729329 0.331456888554474 1.06490571926462e-15 -8.3533561777535e-18 6.58867873190783e-18 2.88860413237099e-35)
(-0.324544687123536 0.253117028509229 -7.34428861801354e-16 -0.415133784999483 0.324307949970923 -1.08902452723432e-15 8.20469761275009e-18 -6.41404118159518e-18 1.11547471295885e-35)
(-0.325878636396884 0.252962134419112 1.93066336230543e-16 -0.418915830536497 0.325577679247229 4.00047829594609e-16 6.19151939079796e-21 -4.79498325238162e-21 -1.05645629636735e-38)
(-0.332265136263446 0.256722069481694 5.60230411387215e-16 -0.428906269734349 0.331904355067176 7.29888195902221e-16 3.20306712795245e-22 -2.1273003291881e-22 2.09916973596499e-38)
(-0.336906782087532 0.257357403072078 -4.36017808428233e-19 -0.439062386552809 0.336525911613576 -4.09514446756977e-19 -6.12424846816121e-21 4.7086518602382e-21 -1.04205132419978e-38)
(-0.33710835717428 0.251224066321013 -7.16835863845741e-16 -0.44897269147517 0.336707084444061 -1.14476407220534e-15 -6.48106667119424e-21 4.77128716908395e-21 1.10510420475818e-35)
(-0.330646224060269 0.236813775093985 5.65869399359016e-16 -0.456489974242269 0.330211038490012 7.81584121062614e-16 4.31205775092786e-18 -3.12355235400474e-18 -3.61715935773594e-33)
(-0.315949198502902 0.213755916862804 -9.19676470526626e-16 -0.459501788533917 0.315451878766235 -1.15695615171032e-15 -6.20424633725754e-21 4.37796654525969e-21 1.04732831464303e-35)
(-0.292708952803435 0.183237531755547 1.32297111889352e-16 -0.456943247117579 0.292112395368747 -1.40439674911116e-17 0 0 0)
(-0.262328269359931 0.148188791736529 -6.17180779724046e-16 -0.449477838652798 0.261575525869265 -1.18419139333149e-15 7.98736563495511e-18 -4.66847321444702e-18 -5.05069837757571e-35)
(-0.229019008517998 0.113630592493069 -6.56550979629243e-16 -0.441438059142193 0.228141625669625 -1.004646817758e-15 3.7899996196222e-18 -1.96903355639589e-18 -2.57786159831498e-36)
(-0.196462263965063 0.0834065103103907 5.83732347819789e-14 -0.436011380725967 0.195521670794889 1.10925899767442e-13 1.02215610881122e-20 -4.2721372544107e-21 -1.24374780704835e-33)
(-0.164335307470257 0.0576350173514297 1.76852644974987e-14 -0.430654643041058 0.163223308840922 4.61190299354638e-14 3.9185255971961e-16 -1.49578132562231e-16 -5.71010543373716e-29)
(-0.135332175383618 0.0372229395595344 -1.52428003973509e-14 -0.435453553279318 0.134448764724755 5.77553401923815e-15 -8.36841364776469e-18 2.59967070834143e-18 1.21852638807279e-31)
(-0.108091433230843 0.0211912575576833 1.92846387218068e-14 -0.444692267700163 0.106750804404578 8.17237031468687e-14 -4.17299871237632e-16 1.001179195727e-16 -1.29685325990331e-30)
(-0.0841000057662693 0.00952686948458159 8.68244650207671e-15 -0.491526985915846 0.083855430737079 -1.10568595625023e-15 9.64509024708533e-21 -1.92915513137571e-21 1.33308919073038e-33)
(-0.0623538996035796 0.00144305809594486 -1.04310409437739e-14 -0.548330045474819 0.0603752437068378 9.77759980288505e-16 1.3043569406338e-20 -8.1347896165009e-22 1.57981349960068e-33)
(-0.048801841615118 -0.00118149302169962 -1.1040331789379e-14 -0.755345868081548 0.049009809621409 -6.92647993079027e-14 -3.73737408735443e-16 1.29140886115681e-17 -2.04986601395548e-29)
(-0.0491861261363294 -0.000229533412456975 1.04493392406583e-14 -1.08072411781785 0.0473857221490989 -7.19771581216198e-14 -5.52444662135592e-16 9.57796500931839e-18 -1.69038119651889e-29)
(-0.0507395901466894 0.000198011856141168 1.02564616746011e-14 -1.39386250328947 0.0500014343542683 1.31381289622456e-13 0 0 0)
(-0.0532833499865832 0.000102660316632568 3.89493630452688e-28 -1.73519819337286 0.0517916913747008 1.33947808592714e-13 0 0 0)
(-0.0531687742248588 7.31212746715627e-06 1.98873023756163e-33 -2.06914866295095 0.0519361613325462 2.25884517175298e-18 0 0 0)