/*--------------------------------*- C++ -*----------------------------------*\
| =========                 |                                                 |
| \\      /  F ield         | OpenFOAM: The Open Source CFD Toolbox           |
|  \\    /   O peration     | Version:  4.1                                   |
|   \\  /    A nd           | Web:      www.OpenFOAM.org                      |
|    \\/     M anipulation  |                                                 |
\*---------------------------------------------------------------------------*/
FoamFile
{
    version     2.0;
    format      ascii;
    class       volScalarField;
    location    "30000";
    object      k;
}
// * * * * * * * * * * * * * * * * * * * * * * * * * * * * * * * * * * * * * //

dimensions      [0 2 -2 0 0 0 0];

internalField   nonuniform List<scalar> 
21000
(
6.5270152745184e-06
6.33464989119416e-06
4.46649462648805e-06
4.54517943806568e-07
2.00322914251053e-07
9.50454154124348e-07
6.7062559524399e-07
3.61180420660263e-07
2.1487634758998e-07
1.47763917875934e-07
1.1528215336332e-07
9.06722473349892e-08
7.50089735013344e-08
6.53085389863779e-08
5.96337366537157e-08
5.76758477510534e-08
5.93845279466948e-08
6.41464730595448e-08
7.12740954255423e-08
7.82750066023017e-08
8.45106575093768e-08
8.86128523798514e-08
8.92673416990273e-08
8.58675771931389e-08
7.90077647052101e-08
7.13468079785692e-08
6.46993414292752e-08
5.77355450481633e-08
5.42540629176193e-08
5.04962267148001e-08
5.85129209488525e-08
6.21021548211484e-08
1.27973338427647e-07
3.09935920610066e-07
5.50751114970399e-07
9.13404278487796e-07
1.36167493850769e-06
1.91419838746675e-06
2.53797942851777e-06
3.22684490485871e-06
3.95478383528744e-06
4.70938926436466e-06
5.47285438595706e-06
6.23436107349198e-06
6.98235090920056e-06
7.70865795838498e-06
8.40538220421281e-06
9.06619917336605e-06
9.68515597689871e-06
1.02571192937053e-05
1.0777372961846e-05
1.12418232764338e-05
1.16469139033934e-05
1.19897526726551e-05
1.22681242968537e-05
1.24805657614756e-05
1.26263990568061e-05
1.27057646988176e-05
1.27195918557596e-05
1.26696073422733e-05
1.25583451947347e-05
1.2389008085227e-05
1.21654193459445e-05
1.18919324629085e-05
1.15733319268813e-05
1.12147286292614e-05
1.08214528193032e-05
1.0398948929257e-05
9.95267469200129e-06
9.48800785759277e-06
9.01016201451185e-06
8.52411350442154e-06
8.03454015584277e-06
7.54577231408864e-06
7.0617560256441e-06
6.58602847433719e-06
6.1217034978158e-06
5.67146874794517e-06
5.2375888033378e-06
4.82192062354215e-06
4.42592710161426e-06
4.05070883853157e-06
3.6970178682612e-06
3.36530880858675e-06
3.05573615296902e-06
2.76823908222263e-06
2.50249154806718e-06
2.25805837312912e-06
2.03423690660363e-06
1.83036769385981e-06
1.64544424088932e-06
1.47875304904242e-06
1.32900034916492e-06
1.19563878441939e-06
1.07700659850329e-06
9.73056910148239e-07
8.81493737994246e-07
8.03353470086781e-07
7.35079201775077e-07
6.79886912059877e-07
6.31598084749196e-07
5.97757040413664e-07
5.66706401630739e-07
5.54639511080171e-07
5.38378400013423e-07
5.50253025586216e-07
5.42133351580076e-07
5.65796767973322e-07
6.19407623873056e-07
6.54449645254857e-07
7.03324127276833e-07
6.98150907432074e-07
6.65719137878438e-07
5.81942860402565e-07
4.73661114955978e-07
3.49110844102295e-07
2.3078811936447e-07
2.69226583473049e-07
5.30102778644095e-07
9.85269195249742e-07
1.69346299101918e-06
2.65812781027381e-06
3.79749052024523e-06
5.07795433658029e-06
6.58918347697228e-06
8.35773578506697e-06
1.0637372467751e-05
1.36213057713797e-05
1.83255027661047e-05
2.61776334398568e-05
3.82601879887428e-05
5.66847656973494e-05
8.53205845213149e-05
0.000127898612540375
0.000178737842841681
0.000186927112675927
0.000115972589937927
5.22270986832131e-05
1.76028197028472e-05
7.60304243312096e-06
4.36276379512701e-06
4.09525786024054e-06
2.964165636209e-06
1.25591923764276e-06
4.1825812801661e-07
2.09747909413945e-07
1.1066653411476e-07
6.08662390244666e-08
3.88279191625506e-08
2.73332401654652e-08
2.12679205483369e-08
1.71777821701123e-08
1.48877232070227e-08
1.3810392940437e-08
1.35968587140818e-08
1.42343734049378e-08
1.58043651556157e-08
1.83140770758445e-08
2.17366922055263e-08
2.57239620888627e-08
3.02018243351824e-08
3.49599094938422e-08
3.96568677526819e-08
4.39909712774954e-08
4.78772954807917e-08
5.17134568973592e-08
5.58216626837268e-08
5.98766070327508e-08
6.46819454822883e-08
7.02667336542125e-08
7.99428742702377e-08
9.42754059532423e-08
1.31939362300303e-07
2.12916239074515e-07
3.20379673036673e-07
4.62316541813765e-07
6.35114619210041e-07
8.40603772694915e-07
1.07322707888095e-06
1.3306206062508e-06
1.60774378964144e-06
1.90147481976096e-06
2.2081366493765e-06
2.52517004862406e-06
2.85004541350745e-06
3.18077993497498e-06
3.51545354729761e-06
3.85234865326945e-06
4.18974774477035e-06
4.52597578748209e-06
4.85933196088612e-06
5.18811818815475e-06
5.51063270071626e-06
5.82519783685694e-06
6.13016963408493e-06
6.42395643896855e-06
6.70504118248687e-06
6.97198423895651e-06
7.22358972153082e-06
7.45830894237351e-06
7.67514777722511e-06
7.8732662055399e-06
8.0520125913555e-06
8.21092206126254e-06
8.34971518556567e-06
8.46829246229092e-06
8.56672526825787e-06
8.64524394087013e-06
8.70422341952661e-06
8.74416712410315e-06
8.76568959082899e-06
8.76949837990365e-06
8.7563758670616e-06
8.72716116201679e-06
8.68273269787535e-06
8.62399174031119e-06
8.55184691799417e-06
8.46720012064519e-06
8.37093353213928e-06
8.26389835449605e-06
8.14690432244534e-06
8.02071127070292e-06
7.88602064604385e-06
7.7434697179057e-06
7.59362430944194e-06
7.43697522017723e-06
7.27393130557082e-06
7.10481785779151e-06
6.92986958714655e-06
6.74923086167113e-06
6.56294642240618e-06
6.37097083836746e-06
6.17314052179977e-06
5.96922908715512e-06
5.75884138122272e-06
5.54162803622402e-06
5.31692553163369e-06
5.08442381412688e-06
4.84315729896549e-06
4.59319505410398e-06
4.33330196149284e-06
4.0644948070554e-06
3.7857229855854e-06
3.50006095172061e-06
3.20755678896351e-06
2.90830056352553e-06
2.5912051598308e-06
2.27847003295278e-06
2.29424244531496e-06
2.50466406537444e-06
2.85193711555007e-06
3.27059156495393e-06
3.73541437101865e-06
4.21866411679949e-06
4.70991532123545e-06
5.23799995766125e-06
5.78951792570038e-06
6.34959214101886e-06
6.90485982674319e-06
7.43544136768332e-06
7.93833462060138e-06
8.3469872270295e-06
8.61051580215032e-06
8.78595684199266e-06
8.9532599960775e-06
9.16403195816568e-06
9.5070164990143e-06
1.00680626659712e-05
1.12114604215798e-05
1.32289721357713e-05
1.63084585929589e-05
2.08838983839018e-05
2.77511670096688e-05
3.75433623035611e-05
4.81770168855648e-05
4.82224966192027e-05
3.26001467375542e-05
1.74945485862082e-05
8.35966793475426e-06
5.12714153676616e-06
2.55354870145726e-05
2.37279685574923e-05
1.730519675996e-05
8.85186079366278e-06
2.95357766057403e-06
6.09125831576322e-07
1.26938092844164e-07
7.19192267290558e-08
6.27967061907315e-08
4.8926861734511e-08
3.81132942084368e-08
3.32826912217441e-08
3.26063357798845e-08
3.47128770713003e-08
3.90397193702131e-08
4.58251617949164e-08
5.57075127829998e-08
6.93586866924353e-08
8.72725942112984e-08
1.09461345055381e-07
1.36069625164749e-07
1.66957455635227e-07
2.01009093735236e-07
2.36669875852069e-07
2.72720020084515e-07
3.09294968059437e-07
3.46833331491484e-07
3.84327684115442e-07
4.23776756060449e-07
4.69312154754276e-07
5.33165482475825e-07
6.36382181769018e-07
8.47495744121552e-07
1.25797080343559e-06
1.80397827404496e-06
2.47948733854615e-06
3.29465219124374e-06
4.24388566500671e-06
5.3200969137312e-06
6.51227074498992e-06
7.80995952081955e-06
9.20292239903715e-06
1.06823268474371e-05
1.22404175982813e-05
1.3870397388831e-05
1.55660219600642e-05
1.73212273729491e-05
1.91298258058242e-05
2.0985243707207e-05
2.28803782850055e-05
2.48075053141724e-05
2.67582804905294e-05
2.87237791343741e-05
3.0694572392457e-05
3.26607855752145e-05
3.46121580352116e-05
3.65381782984632e-05
3.84280660259329e-05
4.02742428353038e-05
4.20612696678621e-05
4.37793769115468e-05
4.54190464950174e-05
4.69715129709534e-05
4.84288445564885e-05
4.97840358608828e-05
5.10310751390481e-05
5.21649879037972e-05
5.31818573720913e-05
5.40788224041043e-05
5.48540545489102e-05
5.55067164883714e-05
5.60369036376352e-05
5.64455726915987e-05
5.67344584202476e-05
5.69059828834035e-05
5.6963158830117e-05
5.69094902317265e-05
5.67488709712085e-05
5.64854857197386e-05
5.61237107214883e-05
5.56680221912697e-05
5.51229014312597e-05
5.44927576437619e-05
5.37818329204652e-05
5.29941505718388e-05
5.21334024734075e-05
5.120294757288e-05
5.02056418635627e-05
4.91439454143563e-05
4.8019610673974e-05
4.68340055701237e-05
4.55875401576562e-05
4.42803340094851e-05
4.29112979504156e-05
4.14792065905341e-05
3.99815652986736e-05
3.8415789235585e-05
3.67785955105788e-05
3.50664052560482e-05
3.32765593255776e-05
3.14060761627467e-05
2.94549451037993e-05
2.74269940057486e-05
2.53293894708959e-05
2.31854099414681e-05
2.09640684862604e-05
1.86354524190357e-05
1.63255312285488e-05
1.64136589736268e-05
1.79590782063503e-05
2.05165435620418e-05
2.36690928454891e-05
2.71955755043111e-05
3.09122436535963e-05
3.47157335881145e-05
3.88022282433414e-05
4.30295146152301e-05
4.71343878018703e-05
5.09592260601321e-05
5.43875595681631e-05
5.73286113974191e-05
5.92951364262268e-05
6.00284584249234e-05
5.99935385945466e-05
5.967871895159e-05
5.94333216453538e-05
5.96541625413046e-05
6.07865500358362e-05
6.44466312596913e-05
7.12828400366063e-05
8.15697957493161e-05
9.63249368749029e-05
0.000117412215058666
0.000145610268832362
0.000171481644127312
0.000163003703877856
0.000120486994307164
7.50951393970706e-05
4.36129902670704e-05
3.008853771501e-05
9.60407271086196e-05
8.90787559410698e-05
6.51020527854143e-05
3.37667077105673e-05
1.1437684663741e-05
2.30472218127695e-06
4.13151032257034e-07
2.22743333812375e-07
2.0835592256162e-07
1.66508149170282e-07
1.29805316350154e-07
1.14340172272229e-07
1.1358873984528e-07
1.22669265810774e-07
1.39646537250888e-07
1.65391703880791e-07
2.02296347543379e-07
2.53005131978314e-07
3.19581177904575e-07
4.02562790941088e-07
5.02652317397629e-07
6.19599217058386e-07
7.49495954403204e-07
8.86551028945553e-07
1.02584746692576e-06
1.16712468019614e-06
1.31176271461242e-06
1.4562648597096e-06
1.60768002292966e-06
1.78236473105059e-06
2.02586766414049e-06
2.42195787813356e-06
3.21978717527773e-06
4.75284725091538e-06
6.79433285129245e-06
9.31098152361458e-06
1.23444578293518e-05
1.58700636646971e-05
1.98652267062676e-05
2.42887288997648e-05
2.91045745926543e-05
3.42756649176964e-05
3.97711121758169e-05
4.55631198438938e-05
5.16276562962547e-05
5.79422933844582e-05
6.44852595177418e-05
7.12340913775653e-05
7.81648278491077e-05
8.52514019173396e-05
9.24653563088107e-05
9.97758188565156e-05
0.000107149667895785
0.000114551803910834
0.000121945370940223
0.000129291959280668
0.000136552258704631
0.000143688235486643
0.000150664856728556
0.000157427396860279
0.000163938642728237
0.000170162314918188
0.000176064869027168
0.00018161581177476
0.000186788063029787
0.000191558223188237
0.000195906752741338
0.000199818065071916
0.000203280534549653
0.000206286425425032
0.00020883174974304
0.000210916060552846
0.000212542194329832
0.000213715967397129
0.0002144458418748
0.000214742567790537
0.000214618812527787
0.000214088781446883
0.000213167845191784
0.000211872164973915
0.000210218345481341
0.000208223074007346
0.000205902825691007
0.000203273500675889
0.000200350223840617
0.000197146915719623
0.00019367627815239
0.00018994915370674
0.000185974910083274
0.000181760284092801
0.000177310546508431
0.000172627418294897
0.000167711433564572
0.00016255871645311
0.000157164614477445
0.000151520055170426
0.000145614996877895
0.000139437604893474
0.000132973579387052
0.000126213844345014
0.000119145471190421
0.000111770068491499
0.00010409892754162
9.61620741766349e-05
8.80435097331933e-05
7.96322847388695e-05
7.08373314709916e-05
6.21559701201196e-05
6.25790621015827e-05
6.85273465867064e-05
7.83610807519951e-05
9.04926240344923e-05
0.000104056889101113
0.000118352581974295
0.000132988970907436
0.000148669400596729
0.000164794120637539
0.000180360796371203
0.000194783783489187
0.000207631657178686
0.000218523601018713
0.000225654357646366
0.000228174892908937
0.000227871177869307
0.000226537195718056
0.000225488008217893
0.000226198622041465
0.000230411547184
0.000243998148939081
0.000269053500940467
0.000306445680468899
0.000359660697347622
0.000434827316676326
0.000533372192385967
0.000619987679400558
0.000585077149974247
0.000436420990871397
0.000276234496945395
0.000163121556357881
0.00011329031404857
0.00025917175282445
0.000239931113533971
0.00017599731330069
9.2082035863447e-05
3.16809072379406e-05
6.55864104119869e-06
1.17618314827248e-06
5.97006588894838e-07
5.58345676840961e-07
4.50119407755914e-07
3.51063612485453e-07
3.08266730515121e-07
3.05443508777426e-07
3.2932440434884e-07
3.7451544216667e-07
4.43136385263434e-07
5.41531504615898e-07
6.76878697258591e-07
8.55026504838095e-07
1.07790139549031e-06
1.34759136747855e-06
1.66371472625916e-06
2.01615612545478e-06
2.38937550537316e-06
2.76954630743495e-06
3.15480840844271e-06
3.54869957807383e-06
3.94236247746089e-06
4.35463380675764e-06
4.83057764568257e-06
5.49501507408071e-06
6.58098469924813e-06
8.75669215477596e-06
1.28974831088164e-05
1.84129583683202e-05
2.52065691032102e-05
3.33845037231071e-05
4.28752205635999e-05
5.36164926428063e-05
6.54955934568189e-05
7.84157183487349e-05
9.22770997038423e-05
0.000106997410748059
0.000122502534733357
0.000138728678173565
0.000155616264043679
0.000173107557696477
0.000191142970139904
0.000209658991914502
0.000228586548482634
0.000247850280617196
0.000267368469413413
0.000287053492227121
0.000306812553316276
0.000326548300889102
0.000346159369855593
0.000365541788080421
0.000384600568493715
0.000403221372553003
0.000421275227370941
0.000438663255583157
0.00045528950178108
0.000471065151504775
0.000485909369197843
0.000499750250484937
0.000512525528315108
0.000524183051724535
0.000534681039236312
0.000543988111936455
0.00055208312003274
0.000558954783640222
0.000564601163820229
0.000569028999420502
0.000572252921905429
0.000574294588285927
0.000575181749372178
0.000574947282093005
0.000573628196254836
0.000571264655657167
0.00056789899218349
0.000563574788197283
0.00055833592355363
0.000552225788359204
0.000545286325350668
0.000537557479143896
0.000529076075592072
0.000519875731527062
0.00050998521842641
0.000499429343577763
0.000488226081709732
0.000476389292225164
0.000463923760180019
0.000450830485464995
0.000437099635049147
0.00042271775272729
0.000407661736156658
0.000391902407564884
0.000375410464575405
0.000358142746503042
0.000340079577728734
0.00032117669706315
0.000301447251981472
0.000280902961893973
0.000259640319570898
0.000237855068211249
0.000215292566219576
0.000191738470623819
0.000168528398322742
0.000169812463905461
0.000185988224107904
0.000212724163531706
0.000245705860920461
0.00028254629199451
0.00032134577540926
0.000361066596846522
0.000403474470071229
0.000446841687842555
0.000488543487367574
0.000527062511926564
0.000561263342234827
0.000590057808279506
0.000608764969909251
0.000615394828187146
0.000614710428466638
0.000611388500995376
0.000608940665842539
0.000611317312453789
0.000623381344769455
0.000660439604995925
0.000727669844265511
0.000827212353719241
0.000967874939341459
0.00116444556423347
0.00141768894260304
0.00163477878003596
0.00154127510965001
0.0011571848356495
0.000739676502134863
0.000440837113718223
0.000306459201223808
0.000572026524433675
0.000528269056371902
0.000389855303748845
0.000206189260565574
7.21241610817227e-05
1.53794816501518e-05
2.80019119566057e-06
1.33766551274886e-06
1.23839663348609e-06
1.005320149731e-06
7.84566268746801e-07
6.85886564118192e-07
6.76569238309383e-07
7.27002006200639e-07
8.24747049495328e-07
9.73921785659174e-07
1.1882443904782e-06
1.48356993617971e-06
1.87333109425106e-06
2.36263536446054e-06
2.95648875617584e-06
3.65459676418595e-06
4.43552417486482e-06
5.26523072817662e-06
6.11220275585391e-06
6.97015901446718e-06
7.84649198710315e-06
8.72303449222937e-06
9.64144352011e-06
1.07039321075269e-05
1.21914357891032e-05
1.46379612597925e-05
1.95157158631404e-05
2.86882911534131e-05
4.08939005204417e-05
5.59068397391278e-05
7.39372335104593e-05
9.48127990325796e-05
0.000118386116973081
0.000144402860666719
0.000172647136733708
0.000202899040578302
0.000234978515269745
0.000268724318219175
0.000303998304894949
0.000340671798085513
0.000378620428239307
0.00041771606423437
0.000457822425405629
0.000498791549123749
0.000540462294945072
0.000582660193198307
0.000625198461871697
0.000667879638515479
0.000710497022304062
0.000752836243471291
0.000794678922506935
0.000835813280298248
0.000875978499128347
0.000914925225188903
0.000952442894336857
0.000988328334572273
0.00102239335424823
0.00105446652328276
0.0010843951539389
0.00111204677190032
0.00113731011814877
0.00116009568530556
0.00118033579881217
0.00119798427103205
0.00121301567020433
0.00122542423688708
0.00123522252014903
0.00124243975777814
0.0012471200827526
0.00124932059106899
0.00124910932925882
0.00124656322319441
0.00124176602971865
0.00123480626855393
0.00122577528702068
0.00121476524976432
0.00120186745730554
0.00118717032206107
0.00117075815164936
0.00115270880221499
0.00113309335620635
0.00111197278343759
0.00108939946139428
0.0010654115545594
0.0010400378221894
0.00101328851755451
0.000985164045935206
0.000955643901635336
0.000924695529730708
0.000892271124694332
0.000858300388488838
0.000822724626582378
0.000785436016559394
0.000746401486157252
0.000705497622458805
0.000662772135624546
0.000618198254610308
0.000572022855611431
0.0005245853963646
0.000475449442217523
0.000424181121186323
0.000373525146957577
0.000376299714586052
0.000411831880360678
0.000470649749418294
0.000543191889906365
0.000624110823123758
0.000709233437505904
0.000796339178190979
0.000888962750512003
0.000983195515264151
0.00107353859583667
0.00115681574595185
0.00123061651798353
0.00129246787520735
0.00133265340634506
0.00134737090405346
0.00134671591092172
0.00134052135149911
0.00133636916677836
0.00134281400812925
0.00137075817293941
0.00145234159467585
0.00159800547701295
0.0018118169594515
0.00211119967291077
0.00252396318060643
0.00304518981512331
0.00348266892322038
0.00329001060322716
0.00249519152190042
0.00161660024110595
0.000975424690633922
0.000678924554095995
0.00110475101701852
0.00101723202524765
0.000757290114746794
0.000406372945476416
0.000144843484000243
3.17788186589248e-05
5.88041168935601e-06
2.64196741325882e-06
2.41155339153234e-06
1.97105180121058e-06
1.53959228108311e-06
1.33967491761196e-06
1.31494995275619e-06
1.40759656834956e-06
1.59244584696606e-06
1.87633042327767e-06
2.28517330349866e-06
2.84959765075733e-06
3.59648229169864e-06
4.537250977647e-06
5.68236446794004e-06
7.0322414428956e-06
8.54713441330339e-06
1.01618711997549e-05
1.18140133764965e-05
1.34877628200158e-05
1.51964997057472e-05
1.69082874429557e-05
1.8704648153323e-05
2.07909329601038e-05
2.37235517889895e-05
2.85840576043437e-05
3.82136128891098e-05
5.60522047896479e-05
7.97257635244286e-05
0.000108766164629082
0.000143513540422786
0.000183596895902668
0.000228701253667672
0.000278321545656833
0.0003320341340809
0.000389415956384837
0.000450123505501838
0.000513851897919147
0.000580341137127821
0.000649350037201132
0.000720646112818038
0.000793990520608671
0.000869129927417765
0.000945790085041724
0.00102367317449213
0.00110245763859981
0.00118180020928242
0.00126133922582647
0.00134069763236739
0.00141948551963235
0.00149730799159582
0.00157373809269159
0.0016483152609338
0.00172061193295934
0.00179024666897342
0.00185685398674714
0.00192009571383555
0.00197966416363227
0.00203528553596982
0.00208672241304961
0.00213377542690366
0.00217628411011321
0.0022141269533974
0.00224722072316904
0.00227551911466053
0.00229901079934796
0.00231771699275977
0.00233168858359678
0.00234100296640492
0.00234576063708633
0.00234608164930363
0.00234210196716822
0.00233396985273031
0.00232184221372161
0.00230588117030077
0.00228625048624153
0.0022631125466461
0.00223662475028337
0.00220693724056683
0.00217418875096033
0.0021385057596285
0.00209999674360278
0.00205875416194623
0.00201484529911089
0.00196831880722743
0.00191919135915703
0.00186745754324368
0.00181307838780481
0.00175598309072199
0.0016960840398298
0.00163323139543254
0.0015673207422044
0.00149811556625808
0.00142556587384072
0.00134937584680413
0.00126966226639732
0.00118625287871652
0.00109967265157286
0.00101035467273774
0.000917725076543421
0.000820967497644268
0.000724668197111566
0.000729031517932258
0.000796203809468432
0.000907827270756094
0.00104542769777983
0.00119862605143145
0.00135950093680607
0.00152401811347619
0.00169813771540632
0.00187450300372328
0.00204328227622787
0.00219875870769707
0.00233654102017666
0.00245185875498179
0.00252752982859898
0.00255720186200742
0.0025589367524012
0.0025504383215365
0.00254578402433816
0.00256091312758714
0.00261673399778917
0.00277109184364479
0.00304214045118039
0.00343598262860406
0.00398093512745699
0.00471962205359
0.0056311045472475
0.00638213816567056
0.00605573020587775
0.00465724127583651
0.00307152811964461
0.00188495534711802
0.00131674056119332
0.00193581079261796
0.00177679179745531
0.0013383259261767
0.000732203948791794
0.000266961437934739
6.02561143649583e-05
1.13154751103099e-05
4.77527360981299e-06
4.28181511142149e-06
3.52398464928173e-06
2.7559414029483e-06
2.38664039931954e-06
2.33033720426048e-06
2.48441799141226e-06
2.80246093439939e-06
3.29444133490325e-06
4.00487038917445e-06
4.98754054324647e-06
6.29120422239511e-06
7.93855359348682e-06
9.94939133372166e-06
1.2326065284894e-05
1.50015072731562e-05
1.78623486516187e-05
2.07967992038966e-05
2.37716818003901e-05
2.68089674098445e-05
2.98592497882043e-05
3.30697187443719e-05
3.68205459656053e-05
4.21213587108388e-05
5.09787574589872e-05
6.83674356197502e-05
0.000100001539304005
0.000141782144909196
0.000192807014479207
0.000253524639053939
0.000323199532584577
0.000401211629794272
0.000486648667547551
0.00057875521047078
0.000676795565477372
0.000780176893861947
0.000888378223223179
0.00100095622663858
0.00111750089744919
0.00123761737338443
0.00136090116130981
0.00148692472974746
0.00161522745574575
0.00174531169929831
0.00187664309822638
0.00200865449878011
0.00214075240261935
0.00227232297249419
0.00240273165122536
0.00253131101305715
0.00265735353774782
0.00278015339466567
0.00289905442263537
0.00301345559012842
0.0031227871539936
0.00322652513735583
0.00332419596172912
0.00341538113143139
0.00349972049465371
0.00357691422037069
0.00364672353746982
0.0037089702973981
0.00376353546058219
0.00381035663500439
0.00384942476441096
0.00388078016038974
0.0039045079374078
0.00392073306116622
0.00392961509299787
0.00393134276630316
0.00392612843821089
0.00391420261190478
0.00389580841068316
0.00387119637228551
0.00384061904040544
0.00380432632787041
0.00376256002505709
0.00371555017187442
0.00366350876585251
0.00360662796622549
0.00354507167359129
0.00347897714002253
0.00340844256191405
0.00333353305801133
0.00325426573727409
0.00317061384014821
0.00308250508535811
0.00298979664023696
0.00289233801287103
0.00278983840750701
0.00268212116873879
0.00256871911415664
0.00244954851201415
0.00232398384770983
0.0021922340544852
0.00205376230349959
0.00190950360052717
0.00175975917343058
0.00160398967020762
0.00144066632776255
0.00127633727869333
0.00128057333629039
0.00139320664899349
0.0015816148000838
0.00181367689248439
0.00207138515664708
0.00234139420403691
0.00261735541583743
0.00290796636393783
0.0032013760121336
0.00348215176006671
0.00374119012866437
0.00397141504053257
0.0041647660313499
0.00429458958826367
0.0043512419950876
0.00436271095328561
0.00435701828985265
0.00435728912135483
0.0043898728615925
0.00449018326762615
0.00475031497448146
0.00519834014276618
0.00584134410872818
0.0067178718564403
0.0078819505918007
0.00928197173364328
0.0104187808399666
0.00995339613310657
0.00779299675141511
0.00525227554435881
0.00329220979376371
0.00231574422577816
0.00314029202010004
0.00287325776089009
0.00219655743122982
0.00123240244177326
0.000462262338680202
0.000107582996555433
2.04586554273619e-05
8.0956285591063e-06
7.09973156246543e-06
5.88445503826607e-06
4.60942271851489e-06
3.9723969170643e-06
3.85729007491927e-06
4.09469238163649e-06
4.60467568884528e-06
5.40011039016788e-06
6.55210088418855e-06
8.14865140627789e-06
1.02718624789886e-05
1.29629463550268e-05
1.62566328325235e-05
2.01591464047236e-05
2.45649605289544e-05
2.92906082795503e-05
3.41509391026813e-05
3.90846494689039e-05
4.41257128951085e-05
4.92066199283688e-05
5.4579142207443e-05
6.09068575551544e-05
6.99092297507139e-05
8.50605030246551e-05
0.00011442311966883
0.000166723531653151
0.000235298952872873
0.000318499755960986
0.000416770070233707
0.000528755960796394
0.000653326759988226
0.000788958782004396
0.000934405092263606
0.00108848259195581
0.00125024085842684
0.00141885019731334
0.00159360155803098
0.00177383866557149
0.00195892843181026
0.00214822485902849
0.00234104969037364
0.002536679260544
0.00273434027995691
0.00293321213673907
0.00313243441697454
0.00333111833451869
0.00352835716847638
0.00372318712785722
0.00391462163876072
0.00410166638802689
0.00428335867954379
0.00445880689852255
0.0046271902085801
0.00478774344795427
0.00493977246462158
0.00508265911850212
0.00521586594658211
0.00533893891820746
0.00545150851813322
0.00555328927794758
0.00564407788262811
0.00572375001554178
0.00579225612912829
0.00584961627511027
0.00589591424796973
0.00593129110489114
0.00595593832208765
0.00597009067787318
0.00597401901376876
0.00596802290777379
0.00595242348739255
0.00592755621394445
0.00589376407601891
0.00585139053194372
0.00580077336584765
0.0057422374907015
0.00567608988744828
0.00560261141679021
0.00552205355047741
0.00543462790208482
0.00534050578008062
0.00523980459646661
0.00513258852457438
0.00501885827178439
0.00489853715579776
0.00477149602772349
0.00463747259108637
0.00449622102116237
0.00434723114612598
0.0041902104539754
0.00402433337417316
0.0038494280284173
0.00366433473981629
0.0034693069184631
0.00326311704710092
0.00304711628564757
0.00282102085651304
0.00258455683595919
0.00233477064923413
0.00208040852854505
0.00207923423809014
0.00224869925421594
0.0025351662945042
0.00288773445277653
0.00327815587194644
0.00368635773673645
0.00410357709532664
0.0045410082633984
0.00498201765694911
0.00540506500524533
0.00579713128733728
0.00614795803576151
0.00644541913062521
0.00665273598869084
0.00675636765842401
0.00679426350453774
0.00680581953444131
0.00682504632619307
0.00689113385203283
0.00705789457000281
0.00745707455573265
0.00812804908670452
0.00907651087481817
0.010346468571423
0.0119941083436116
0.0139230335884647
0.0154743667691078
0.0149170092547106
0.0119414502171873
0.00825536135751521
0.00530206860938062
0.00376639699384063
0.00477354856841636
0.00435350568241993
0.00338737591039459
0.00196140549447819
0.00076252312795356
0.000183928455635329
3.53535975922938e-05
1.3093649714577e-05
1.11696476905486e-05
9.32330828760391e-06
7.31851807479555e-06
6.27611489161272e-06
6.05874026080973e-06
6.4023484032896e-06
7.17643510738317e-06
8.39528743956338e-06
1.01661799743114e-05
1.2625260056228e-05
1.59028961690586e-05
2.00687877073446e-05
2.51801428562386e-05
3.12497551185763e-05
3.81202348623589e-05
4.55110854033294e-05
5.31343309793728e-05
6.08873682373987e-05
6.88213138925862e-05
7.68566835683119e-05
8.5408370345167e-05
9.55830268860498e-05
0.000110168037504957
0.000134830693500301
0.000181808162665074
0.000263503121035757
0.000369563090080897
0.000497116621366139
0.000646366165791954
0.000814995549565576
0.00100109102078034
0.00120227194300207
0.0014166026030904
0.00164228563285479
0.0018778694193528
0.00212208770067514
0.00237384761508253
0.00263213656194187
0.00289597982607459
0.00316439445024019
0.00343636532734975
0.00371083125484909
0.0039866824091575
0.00426276649371306
0.00453790087891103
0.00481088633670296
0.00508050718907245
0.00534547191731209
0.00560455380812969
0.00585653331898601
0.00610026190979896
0.0063346867243101
0.00655884653794982
0.00677186389445006
0.00697295796804552
0.0071614480690516
0.0073367565086723
0.0074984094291165
0.00764603590446403
0.00777936549049807
0.00789822438905842
0.00800253041840891
0.00809228699748442
0.00816757627819993
0.00822855169893877
0.00827542999864813
0.00830848296260032
0.00832802897929621
0.00833442454753201
0.00832805574817191
0.00830932990829497
0.00827866725866397
0.00823649302484964
0.00818322925069673
0.00811928751263642
0.00804506055192206
0.00796091587197322
0.00786718636809363
0.00776416504534474
0.00765209388166275
0.00753115923104922
0.0074014803776216
0.00726309916167881
0.00711598228709237
0.00695997636785009
0.00679487554885635
0.00662026041281248
0.00643576133394199
0.00624059201038264
0.00603429228438275
0.00581558742859121
0.00558412290421162
0.00533804067904952
0.00507748763085194
0.00480022511609116
0.00450777497470581
0.00419869931809198
0.00387303632065802
0.00352509443263857
0.00316744694610152
0.003150854614131
0.00338022584029808
0.00377450645007905
0.00426022937781039
0.00479718254224962
0.0053582371924534
0.00593263214238427
0.00653317454307837
0.00713915829641856
0.00772348804906962
0.00826919809124022
0.0087627125246467
0.00918759874352454
0.00949824518903616
0.00967706477907779
0.00976956053548784
0.00982532843803938
0.00988946750929099
0.0100147908172036
0.0102752681814709
0.0108417619906752
0.0117651086714586
0.0130467170644377
0.0147282084206946
0.016855538174178
0.0192797328273094
0.0212188557452332
0.0206647028168773
0.0169874087876587
0.012096407605311
0.00797961262729374
0.00573551360346124
0.00685916574706727
0.00623160816844034
0.00494295727672825
0.00297143125501459
0.00120755011598449
0.000304368725458917
5.90980657293182e-05
2.04575327658006e-05
1.68596483426501e-05
1.41695021249392e-05
1.11522650689284e-05
9.51641651850996e-06
9.13005269296632e-06
9.60096816139524e-06
1.07249162534658e-05
1.25141039951491e-05
1.51228885930687e-05