/*--------------------------------*- C++ -*----------------------------------*\
| =========                 |                                                 |
| \\      /  F ield         | OpenFOAM: The Open Source CFD Toolbox           |
|  \\    /   O peration     | Version:  4.1                                   |
|   \\  /    A nd           | Web:      www.OpenFOAM.org                      |
|    \\/     M anipulation  |                                                 |
\*---------------------------------------------------------------------------*/
FoamFile
{
    version     2.0;
    format      ascii;
    class       volScalarField;
    location    "30000";
    object      nut;
}
// * * * * * * * * * * * * * * * * * * * * * * * * * * * * * * * * * * * * * //

dimensions      [0 2 -1 0 0 0 0];

internalField   nonuniform List<scalar> 
21000
(
3.28635313703057e-10
3.19102882925677e-10
2.24529704086219e-10
2.24847332124189e-11
9.44263391749116e-12
4.17521097763034e-11
2.81908979132134e-11
1.50693091711051e-11
9.18762309486778e-12
6.63714198235892e-12
5.55044229556561e-12
4.75896658308671e-12
4.33210267231465e-12
4.12996620062911e-12
4.10185490847147e-12
4.28906928805304e-12
4.74804282099314e-12
5.48628336410249e-12
6.49157372983706e-12
7.59322640718014e-12
8.77139672346814e-12
9.88233851402793e-12
1.07374699888957e-11
1.11756169054812e-11
1.11519179244116e-11
1.09137203527029e-11
1.06544088917755e-11
1.01466535294947e-11
1.00717261925318e-11
9.78351067508092e-12
1.16687090087097e-11
1.25499699160958e-11
2.58084411891438e-11
6.24211152682329e-11
1.10921310684828e-10
1.8395967927633e-10
2.74241414171309e-10
3.85519662440922e-10
5.11149187901719e-10
6.49886714748591e-10
7.96493629119736e-10
9.48471168950039e-10
1.10223304277166e-09
1.25560047980527e-09
1.40624561510945e-09
1.55252383018191e-09
1.69284406268425e-09
1.82593256492794e-09
1.95059042647995e-09
2.0657837979479e-09
2.17056284584047e-09
2.26410309949259e-09
2.34568831465195e-09
2.41473600956927e-09
2.47080002649916e-09
2.51358571523113e-09
2.54295652527443e-09
2.55894075694013e-09
2.56172554483474e-09
2.55165866927725e-09
2.52925048478732e-09
2.49514600889886e-09
2.45011525991135e-09
2.39503502897124e-09
2.33086891149497e-09
2.25864623995172e-09
2.17944052549438e-09
2.0943482757836e-09
2.00446867731495e-09
1.91088480815687e-09
1.81464668437027e-09
1.71675654064896e-09
1.61815649128431e-09
1.51971866759106e-09
1.4222378032296e-09
1.32642628703832e-09
1.23291124603365e-09
1.14223397349742e-09
1.05485055582042e-09
9.71134984958261e-10
8.91381887902646e-10
8.15812926033153e-10
7.44579559332985e-10
6.7777334815556e-10
6.15425407795538e-10
5.57523489556776e-10
5.04001927572268e-10
4.54773077346753e-10
4.09695425199314e-10
3.68636157133419e-10
3.31392565380839e-10
2.97820951426812e-10
2.67660750226296e-10
2.40801724190536e-10
2.16909195602292e-10
1.95973722645257e-10
1.77532894606979e-10
1.61795440148032e-10
1.48044998505783e-10
1.36929268072166e-10
1.27203895342532e-10
1.20388306954979e-10
1.14134706401255e-10
1.11704433901239e-10
1.08429445127701e-10
1.10820995452096e-10
1.09185692605558e-10
1.14104489004906e-10
1.25173545360742e-10
1.30511042518999e-10
1.36267190717247e-10
1.2960475689292e-10
1.1699588718091e-10
9.58318424542282e-11
7.24546064755544e-11
4.92768713141102e-11
3.00369439108656e-11
3.23837620161504e-11
5.91184565256607e-11
1.02261502933097e-10
1.64277821383771e-10
2.42099627575276e-10
3.24789609138216e-10
4.06003782247399e-10
4.90005144385705e-10
5.74879557789159e-10
6.72683608371436e-10
7.86691036615264e-10
9.61820660204257e-10
1.26036344727248e-09
1.71854014268457e-09
2.42371042766383e-09
3.55977622932987e-09
5.37643270547176e-09
7.85169057438698e-09
8.81118171254103e-09
5.73708957965715e-09
2.62544368868217e-09
8.8672776839785e-10
3.82813293140871e-10
1.2748424797658e-09
1.19802334909087e-09
8.65090385655141e-10
3.60909843642281e-10
1.1469294337744e-10
5.36532706180779e-11
2.70810385989747e-11
1.47709854131266e-11
9.64854772346541e-12
7.12975318685054e-12
5.94216597089773e-12
5.22862621648809e-12
4.98511238592099e-12
5.06377436371926e-12
5.42337359382838e-12
6.13899385214893e-12
7.329169790419e-12
9.08597861153915e-12
1.14841468208028e-11
1.44725014086687e-11
1.81741317762098e-11
2.25972529762524e-11
2.76382542755679e-11
3.31628261691685e-11
3.91324870543226e-11
4.58021429989445e-11
5.32288256485393e-11
6.09389804570116e-11
6.95431081936513e-11
7.88503671394749e-11
9.2332722183368e-11
1.10332370909459e-10
1.5415611556171e-10
2.48653221763651e-10
3.74188669801902e-10
5.39940438242965e-10
7.41736932554632e-10
9.81731343494409e-10
1.25344207979541e-09
1.55411926055799e-09
1.87787873080945e-09
2.22107773746047e-09
2.57942010063305e-09
2.94991629318391e-09
3.32960967693039e-09
3.71618362335589e-09
4.10739448782178e-09
4.501236003536e-09
4.8957018820861e-09
5.28883565003922e-09
5.6786503192032e-09
6.0631617430486e-09
6.44038078256192e-09
6.8083457713514e-09
7.16513360078594e-09
7.5088814583032e-09
7.83781288399477e-09
8.15023824007328e-09
8.44458476501682e-09
8.71915578156081e-09
8.97283373661317e-09
9.20463406873176e-09
9.41379231679663e-09
9.59976228098227e-09
9.76221455684157e-09
9.90103016097092e-09
1.00162900183164e-08
1.01082610861829e-08
1.01773796143379e-08
1.02242323319016e-08
1.02495361705823e-08
1.02541171234911e-08
1.02388889592732e-08
1.02048320737179e-08
1.01529731189413e-08
1.00843657004133e-08
1.00000722653247e-08
9.90114758317113e-09
9.7886235578391e-09
9.66349600553811e-09
9.52671237604921e-09
9.37916184395306e-09
9.22166539077383e-09
9.05496895540021e-09
8.87973500550157e-09
8.69653818643654e-09
8.50585745415022e-09
8.30807378866996e-09
8.10346257529681e-09
7.89219295718227e-09
7.67431838193003e-09
7.44978554421553e-09
7.21840481798561e-09
6.97991035693024e-09
6.73384297659873e-09
6.47979126835429e-09
6.21698478773998e-09
5.94505475786196e-09
5.66288265228147e-09
5.370536529895e-09
5.06659278315944e-09
4.75221479814296e-09
4.42621405904912e-09
4.09209140295477e-09
3.75002052035366e-09
3.39994539311704e-09
3.02880691093169e-09
2.66379396986424e-09
2.68546634967046e-09
2.89287018551717e-09
3.20036812250875e-09
3.51644947771341e-09
3.80192833690508e-09
4.02317492121965e-09
4.1722374956954e-09
4.28226691223673e-09
4.36577075374375e-09
4.42686008029359e-09
4.46494745217063e-09
4.4762299633411e-09
4.46807365714278e-09
4.41171836561342e-09
4.27337175632616e-09
4.0757465926175e-09
3.86251878597231e-09
3.65630564888784e-09
3.4869303727309e-09
3.37239830628136e-09
3.41400919418034e-09
3.69787362441183e-09
4.25617765352309e-09
5.19239602177782e-09
6.73847295941296e-09
9.19172759325912e-09
1.2326739588589e-08
1.32112736706452e-08
9.3434129435571e-09
5.09153697197125e-09
2.4387081010006e-09
1.49722481853912e-09
2.2358122563967e-08
2.08070853008265e-08
1.51642543676675e-08
7.64416163273693e-09
2.43419051361414e-09
4.68013563343221e-10
9.32675548409775e-11
5.23698629840409e-11
4.6786078166647e-11
3.82375459706381e-11
3.18855706412075e-11
3.03198026096457e-11
3.26695273090328e-11
3.80873389722412e-11
4.66023290102423e-11
5.9154421890295e-11
7.73336171108652e-11
1.03018227943482e-10
1.3804711235922e-10
1.84356981986851e-10
2.45064966090395e-10
3.22920247148376e-10
4.19099660538716e-10
5.33639717927594e-10
6.66610537824766e-10
8.19210973257221e-10
9.8913329997729e-10
1.16998470481319e-09
1.36297198010528e-09
1.57557749090706e-09
1.84243099134506e-09
2.22863168822889e-09
2.96661575732484e-09
4.40512005335686e-09
6.31871399486133e-09
8.68438581965333e-09
1.15390272821363e-08
1.48629241570739e-08
1.86312414770206e-08
2.28053105384769e-08
2.73485385668633e-08
3.22250291971392e-08
3.7403871275113e-08
4.28579244475961e-08
4.85634352344477e-08
5.44985934400526e-08
6.06422401747461e-08
6.69727908436423e-08
7.34673223387177e-08
8.01010641401616e-08
8.68470753306457e-08
9.3676244704142e-08
1.00557427505869e-07
1.07457708091722e-07
1.14342600795723e-07
1.2117625363404e-07
1.27921844592803e-07
1.34540942257874e-07
1.41021111900571e-07
1.47295451191578e-07
1.53329829149477e-07
1.59090699738569e-07
1.64547126089836e-07
1.69671069195559e-07
1.74437720005978e-07
1.78825742690263e-07
1.82817434922405e-07
1.86398806639695e-07
1.8955957928967e-07
1.9229311098336e-07
1.94596255530501e-07
1.96469161265489e-07
1.97915023132052e-07
1.98939792403093e-07
1.99551858887736e-07
1.99761711786919e-07
1.99581589845842e-07
1.99025124193421e-07
1.98106988728734e-07
1.96842549202677e-07
1.95247539889665e-07
1.93337726748054e-07
1.91128635916219e-07
1.88635214283707e-07
1.85871651430387e-07
1.82850972787884e-07
1.79585047435698e-07
1.76083965883199e-07
1.72356451958451e-07
1.68408709765297e-07
1.64245645916657e-07
1.59868723567777e-07
1.55278503903728e-07
1.50471131797666e-07
1.45442527584285e-07
1.40183800346094e-07
1.34686263299272e-07
1.28938065623826e-07
1.22927359204788e-07
1.16644105355837e-07
1.10079194245546e-07
1.03231103847288e-07
9.61158903591353e-08
8.87585561995577e-08
8.12439867959544e-08
7.34591553043839e-08
6.52783763737632e-08
5.7162277251471e-08
5.74893676543845e-08
6.20577897858429e-08
6.88787032384831e-08
7.61425709558267e-08
8.28284229462976e-08
8.82233508808124e-08
9.20426868917197e-08
9.49697439069828e-08
9.71772433011786e-08
9.84502203511696e-08
9.87510658769346e-08
9.81451227402896e-08
9.67399805769354e-08
9.39589405600526e-08
8.93011653125038e-08
8.3404995824585e-08
7.71444614098431e-08
7.1043576411317e-08
6.55465341599526e-08
6.10011180778788e-08
5.88243599628644e-08
5.97668570326946e-08
6.38997849902882e-08
7.19447953160226e-08
8.57139340323256e-08
1.072224555469e-07
1.31768477990726e-07
1.3378237033385e-07
1.03702786577566e-07
6.5665283615117e-08
3.81987694582583e-08
2.63328537028982e-08
1.80840625834481e-07
1.6819340914737e-07
1.22650497589791e-07
6.26874819108531e-08
2.03114152980123e-08
3.82588179137921e-09
6.56888305915038e-10
3.50928891293614e-10
3.35627890998675e-10
2.81156571358037e-10
2.34487514602797e-10
2.24799403117851e-10
2.45545256783438e-10
2.90380525866305e-10
3.59652086866319e-10
4.60637379267499e-10
6.05922136495825e-10
8.10831504063539e-10
1.09073619567731e-09
1.4627450564496e-09
1.95266900418522e-09
2.58432279632459e-09
3.36919881097482e-09
4.30898470052025e-09
5.40400340508372e-09
6.66126472210428e-09
8.06115187551249e-09
9.5522605198117e-09
1.11403756314864e-08
1.28891930189436e-08
1.50737820321742e-08
1.82480510470447e-08
2.42305365837743e-08
3.57869592789193e-08
5.11642954757213e-08
7.0097888745137e-08
9.29211636365819e-08
1.19447984981156e-07
1.49512020522411e-07
1.82803418287297e-07
2.1905298236772e-07
2.57981975626036e-07
2.99359139061826e-07
3.42976393017949e-07
3.88654611889993e-07
4.36227040026634e-07
4.85532311981688e-07
5.36404103755818e-07
5.88665001966477e-07
6.42121754542887e-07
6.96563001553426e-07
7.51758935616922e-07
8.07462414737774e-07
8.63410877739528e-07
9.19327855026892e-07
9.74924123701521e-07
1.02990343064492e-06
1.08400301274345e-06
1.13706573244748e-06
1.18854911270511e-06
1.23817013896233e-06
1.2856491493158e-06
1.33072649708631e-06
1.37316506937724e-06
1.41275321160989e-06
1.44930694254702e-06
1.48267150006838e-06
1.5127222197128e-06
1.53936475488785e-06
1.56253467511935e-06
1.58219650273017e-06
1.598342230796e-06
1.61098943109485e-06
1.62017898528516e-06
1.62597256167435e-06
1.6284498885084e-06
1.62770591429568e-06
1.62384788274886e-06
1.61699245218534e-06
1.60726278197133e-06
1.59478583997241e-06
1.5796895750278e-06
1.56210064010909e-06
1.54214151923317e-06
1.51992902991528e-06
1.49557086837134e-06
1.46916567600466e-06
1.44079777292898e-06
1.41054060931368e-06
1.37844708630819e-06
1.34455971901353e-06
1.30889281664261e-06
1.27145337771823e-06
1.23221234323137e-06
1.19113842034131e-06
1.148161671861e-06
1.10321220887128e-06
1.05619666731552e-06
1.0070175275477e-06
9.55597695870155e-07
9.01859397791516e-07
8.45796429181435e-07
7.87534112368844e-07
7.27298526962688e-07
6.65783720106527e-07
6.02064460789342e-07
5.35274286379624e-07
4.69017587605204e-07
4.72145522576872e-07
5.10135795603031e-07
5.67001552327647e-07
6.27762751416053e-07
6.83804890009373e-07
7.29203039585967e-07
7.61607006122659e-07
7.86508197555712e-07
8.05001163257876e-07
8.15310639238546e-07
8.17253921651928e-07
8.11460284269167e-07
7.98705510275314e-07
7.74329360233348e-07
7.34767183023056e-07
6.85500368822797e-07
6.33499745456074e-07
5.83013552172766e-07
5.37611072912746e-07
5.00299832556519e-07
4.82317836407333e-07
4.89000753233115e-07
5.20818547710983e-07
5.83298575223638e-07
6.89808820177991e-07
8.53334874359881e-07
1.03110106952187e-06
1.02911464982154e-06
7.99603899555765e-07
5.13682027858455e-07
3.04646058013929e-07
2.12532085395426e-07
8.67780201919743e-07
8.07997114907109e-07
5.89347108742883e-07
3.03501158652758e-07
1.00322358909447e-07
1.95345155211907e-08
3.36883672270516e-09
1.69519928703971e-09
1.61978288451695e-09
1.36766924837094e-09
1.14041028600455e-09
1.08926382203725e-09
1.18624690154677e-09
1.40043718346796e-09
1.73266631104258e-09
2.21695006274256e-09
2.91344309806999e-09
3.89629025477776e-09
5.24137635546585e-09
7.03381354440944e-09
9.39957728252724e-09
1.24573640735047e-08
1.62677649600095e-08
2.08421051117661e-08
2.61791505628075e-08
3.23034554063403e-08
3.91205526760255e-08
4.63814734619309e-08
5.4105457248121e-08
6.25952518405828e-08
7.31888364177544e-08
8.85734396928467e-08
1.17423138005398e-07
1.72946877619287e-07
2.46825481651079e-07
3.37673435397091e-07
4.47086496421585e-07
5.7412772575734e-07
7.18026563210662e-07
8.77296299907402e-07
1.05067330983147e-06
1.23683750915998e-06
1.43470712118821e-06
1.64330842046551e-06
1.8618112496878e-06
2.08944480919665e-06
2.32546666897288e-06
2.56911116897545e-06
2.81956028019828e-06
3.07591947978527e-06
3.33720618306196e-06
3.60234689360618e-06
3.87018165897904e-06
4.13947241190215e-06
4.40890932356192e-06
4.67711435818841e-06
4.94267753560125e-06
5.20466070548923e-06
5.46164301443053e-06
5.71133592482374e-06
5.95235755798976e-06
6.18333809994621e-06
6.40299878676985e-06
6.61016471191989e-06
6.80377986992936e-06
6.98291884994892e-06
7.14679533899617e-06
7.29476740157579e-06
7.42633954046861e-06
7.54116168071513e-06
7.63902534268183e-06
7.7198571889884e-06
7.78371046250062e-06
7.83075446426266e-06
7.86126266737687e-06
7.87559971848946e-06
7.87420777409508e-06
7.85759231594946e-06
7.82630809258197e-06
7.78094482396e-06
7.72211392026349e-06
7.6504345019392e-06
7.56652205704693e-06
7.47097420700963e-06
7.36436309734702e-06
7.24721840440865e-06
7.12002719896197e-06
6.98320845421511e-06
6.83712887183682e-06
6.68205698263415e-06
6.5182098162034e-06
6.34567071268963e-06
6.16448267332019e-06
5.97452213180703e-06
5.77564076197327e-06
5.56752413782077e-06
5.34982393481959e-06
5.12212738662099e-06
4.88392663404961e-06
4.63491644379531e-06
4.37463863207285e-06
4.10317828621819e-06
3.82098327820119e-06
3.52936479312508e-06
3.23145642349352e-06
2.92312554225573e-06
2.60075966089664e-06
2.27987678454575e-06
2.29694924119096e-06
2.4835708942772e-06
2.76382803443927e-06
3.06400352961137e-06
3.3413878213846e-06
3.5668275960662e-06
3.72890909682469e-06
3.85368465900696e-06
3.94488991313817e-06
3.99432196370539e-06
4.0017064194178e-06
3.97033513101407e-06
3.90350561652381e-06
3.77901379667187e-06
3.58216384726472e-06
3.3406071550507e-06
3.08718322287814e-06
2.8422204574896e-06
2.6229378587896e-06
2.44477838332879e-06
2.36123413514812e-06
2.39523708815802e-06
2.54922993024691e-06
2.84982545010877e-06
3.35778770199127e-06
4.122525943099e-06
4.91565936725621e-06
4.82474358745617e-06
3.71270818745514e-06
2.39359856731386e-06
1.43725352113948e-06
1.01437171650259e-06
3.00506202028449e-06
2.80812267690082e-06
2.05251868993374e-06
1.06606240741392e-06
3.60608063766141e-07
7.30853824144448e-08
1.28918089019907e-08
6.1147110077965e-09
5.7792504030312e-09
4.90877628478245e-09
4.09240226757369e-09
3.88929214269752e-09
4.21476536970237e-09
4.95818569568643e-09
6.11884173817907e-09
7.81251602761582e-09
1.02489888951296e-08
1.36896223518142e-08
1.84074624915163e-08
2.47100100761731e-08
3.30455298456852e-08
4.38446592552662e-08
5.73384153543223e-08
7.35777167260876e-08
9.25470680468824e-08
1.14297879033125e-07
1.38496924718967e-07
1.64255632402898e-07
1.91604532423046e-07
2.21570765530718e-07
2.58862720747996e-07
3.12895591137433e-07
4.13879536324917e-07
6.0762151601658e-07
8.65259712183621e-07
1.18159787305937e-06
1.56210693161089e-06
2.00341341281549e-06
2.50290647423316e-06
3.05545208846392e-06
3.65676107744689e-06
4.3023425031586e-06
4.98856089746343e-06
5.71215967668365e-06
6.47039390203386e-06
7.26072945781416e-06
8.08073599729934e-06
8.92790272968132e-06
9.7995340959876e-06
1.06926610797781e-05
1.16039964344033e-05
1.25299199520554e-05
1.34664898872897e-05
1.44094688879801e-05
1.53543456250782e-05
1.62963879410852e-05
1.72309837061673e-05
1.81548661662389e-05
1.90615397765661e-05
1.994403036165e-05
2.07973916902857e-05
2.16167134156102e-05
2.23973842378128e-05
2.31351400767622e-05
2.38261209350534e-05
2.44669161075143e-05
2.50545982027891e-05
2.55867457089634e-05
2.60614539963379e-05
2.64773351555386e-05
2.68335075279327e-05
2.71295755234857e-05
2.73656015272101e-05
2.7542070392972e-05
2.76598486479068e-05
2.77201393226519e-05
2.77244340162781e-05
2.76744627489479e-05
2.757214394038e-05
2.74195332904166e-05
2.72187760174418e-05
2.69720565042527e-05
2.66815570691642e-05
2.63494066395405e-05
2.59776524252288e-05
2.5568199246223e-05
2.51228068201789e-05
2.46430007122504e-05
2.41301232088459e-05
2.35851776992807e-05
2.30089789319113e-05
2.2401886192158e-05
2.17640901767912e-05
2.10952363492509e-05
2.03948112867417e-05
1.96618206885309e-05
1.88949820010507e-05
1.80930212134216e-05
1.72539698722896e-05
1.63770578531438e-05
1.54602712119139e-05
1.45044288821304e-05
1.3510322203832e-05
1.24834903896637e-05
1.14337352636597e-05
1.03484202846455e-05
9.21635792403869e-06
8.08189179327541e-06
8.14603899711532e-06
8.81193199095694e-06
9.81592980979555e-06
1.08939206871398e-05
1.18920507849265e-05
1.27060335920243e-05
1.32955342544096e-05
1.37499102529954e-05
1.4076797398099e-05
1.42489126658285e-05
1.42672727880047e-05
1.41441483791024e-05
1.38895393897841e-05
1.34269045127689e-05
1.27139581442512e-05
1.18520258968698e-05
1.09534558257834e-05
1.0088973964332e-05
9.31914501513175e-06
8.70144571928273e-06
8.42095813355029e-06
8.54752575086366e-06
9.08986278369243e-06
1.01408075638035e-05
1.18996294442698e-05
1.44928179614977e-05
1.70528722929322e-05
1.6447431894647e-05
1.2465404885106e-05
8.01893879551529e-06
4.86755160124574e-06
3.48220850513924e-06
8.30148316494318e-06
7.80970464779499e-06
5.74286451289778e-06
3.01629529653787e-06
1.0482386245702e-06
2.22025313258867e-07
4.02824957517081e-08
1.80283522027958e-08
1.67894828133059e-08
1.43404097712643e-08
1.19548330908254e-08
1.13009441946697e-08
1.21796243314948e-08
1.426994135517e-08
1.75585263303537e-08
2.2364100895011e-08
2.92796898034017e-08
3.90521901941684e-08
5.24785421899105e-08
7.04599192330321e-08
9.42909558281276e-08
1.25239528257869e-07
1.64018031211139e-07
2.108043750599e-07
2.65516720458068e-07
3.28186693616118e-07
3.97842828363488e-07
4.71882581584232e-07
5.50234434676183e-07
6.35651798849863e-07
7.41378142390601e-07
8.94092513793777e-07
1.17919927364036e-06
1.72429362475183e-06
2.44827878423371e-06
3.33562341314816e-06
4.40137956781905e-06
5.63596399339243e-06
7.03232744304199e-06
8.57639079538223e-06
1.02565554524244e-05
1.20606828808276e-05
1.39790538191048e-05
1.6003016039963e-05
1.81253455543887e-05
2.03393996152845e-05
2.26388048953457e-05
2.50169345963561e-05
2.74666034152149e-05
2.9979809280081e-05
3.25475957238467e-05
3.51600011723726e-05
3.78060836483586e-05
4.04739957166551e-05
4.31510717795996e-05
4.58241433627987e-05
4.84817867266104e-05
5.11109535978318e-05
5.36928508318499e-05
5.62094811919629e-05
5.86465151262563e-05
6.09897602330343e-05
6.3225844493117e-05
6.53423606967168e-05
6.7328035365539e-05
6.91728637872081e-05
7.08682126340384e-05
7.24068893198917e-05
7.37831778029696e-05
7.49928420054713e-05
7.60330993258134e-05
7.69025660108681e-05
7.76011795655495e-05
7.81300996463989e-05
7.84915935294953e-05
7.86889088094416e-05
7.8726137892097e-05
7.86080758840961e-05
7.83400785032953e-05
7.79279166269944e-05
7.73776399719431e-05
7.66954333861631e-05
7.58874982953325e-05
7.49599062565207e-05
7.39185156371377e-05
7.27688001520053e-05
7.15158342929291e-05
7.01640475680808e-05
6.87173496606103e-05
6.71787169658641e-05
6.55505616170542e-05
6.38340657256211e-05
6.20298329820758e-05
6.01370745355867e-05
5.8154291168301e-05
5.60789800976676e-05
5.39072398309683e-05
5.16359610943094e-05
4.92588872574444e-05
4.67746742709089e-05
4.41762186602925e-05
4.14672952568852e-05
3.86474459059788e-05
3.57349971637271e-05
3.27533033269134e-05
2.96732481798314e-05
2.64662401122937e-05
2.32226547341134e-05
2.3406777517086e-05
2.53211516138455e-05
2.82195758623607e-05
3.13383237797544e-05
3.42310348396368e-05
3.65980362142381e-05
3.83254063686835e-05
3.96578423e-05
4.06025825668413e-05
4.1086580809588e-05
4.11176843854018e-05
4.07319553036433e-05
3.99530073291134e-05
3.85690512957158e-05
3.64866354827333e-05
3.4004144210548e-05
3.14318227513487e-05
2.89683441952219e-05
2.67862767347996e-05
2.50578733984437e-05
2.4300385887403e-05
2.46808560567695e-05
2.62222036794332e-05
2.91846500044092e-05
3.40935483619586e-05
4.11839837035008e-05
4.78651707596064e-05
4.5435628119387e-05
3.38026996587525e-05
2.15445577172098e-05
1.31503576363551e-05
9.51860497707359e-06
1.9352839524779e-05
1.83704765822594e-05
1.36672894227343e-05
7.28760676874859e-06
2.61372739496228e-06
5.81598198542358e-07
1.09019545148009e-07
4.61027888090027e-08
4.21659744121605e-08
3.62132743772293e-08
3.01923280259862e-08
2.83831431408615e-08
3.04104291638229e-08
3.54727177473807e-08
4.35069198298639e-08
5.52666242542467e-08
7.21957826770203e-08
9.61336070969933e-08
1.29085510885489e-07
1.73329324161216e-07
2.32090361403046e-07
3.08586996415234e-07
4.04705209866944e-07
5.20958004725669e-07
6.57023868956517e-07
8.12640929535527e-07
9.85289898773132e-07
1.16829831857608e-06
1.36091280109337e-06
1.56926249094444e-06
1.82495111777406e-06
2.19351774781188e-06
2.88331045797649e-06
4.19631723644101e-06
5.93718666928653e-06
8.06716260585018e-06
1.06216788304974e-05
1.35781221402079e-05
1.69204038505154e-05
2.06158983513732e-05
2.4637854655895e-05
2.89582735446494e-05
3.35547798578829e-05
3.84074724541238e-05
4.34996947440677e-05
4.88160489106026e-05
5.43416070267626e-05
6.0060674000552e-05
6.5956039963836e-05
7.20083704404032e-05
7.81958767728124e-05
8.44942088131933e-05
9.087653507373e-05
9.73137981810858e-05
0.000103775226427333
0.000110229760667416
0.000116649431851292
0.000122995250945953
0.000129223983727711
0.000135295027719428
0.000141173616094262
0.000146825638781082
0.000152219079665698
0.000157324354833158
0.00016211469917436
0.000166566466735005
0.000170659350772909
0.000174376523204141
0.000177704694495379
0.000180634098285536
0.000183158407769248
0.000185274588943745
0.000186982703477689
0.00018828566478932
0.000189188961658544
0.000189700355427942
0.000189829560969434
0.000189587914689831
0.000188988044381844
0.000188043532647459
0.000186768601966703
0.000185177783351787
0.00018328564188357
0.00018110643926146
0.000178653936862918
0.000175941002772732
0.00017297956187003
0.000169780044625397
0.000166351625101933
0.000162701335029461
0.000158834760279405
0.000154754738315185
0.000150462422224141
0.000145956070194374
0.000141231512677928
0.000136283100861051
0.000131100336892155
0.000125676402400294
0.000119994149464039
0.000114051443451368
0.000107827402316901
0.00010133318537554
9.45605750111308e-05
8.75578053724735e-05
8.0369236973887e-05
7.29416752676533e-05
6.52113189347415e-05
5.73109078023925e-05
5.77301703332802e-05
6.24107572470532e-05
6.95171496286208e-05
7.71757264155876e-05
8.42860257815284e-05
9.01234227627026e-05
9.44201835401863e-05
9.77394666752835e-05
0.000100069017399657
0.00010124195414776
0.000101286005452161
0.000100288054009229
9.8292002479036e-05
9.4800614725317e-05
8.96453832800707e-05
8.35673079622502e-05
7.72978665579106e-05
7.13141893014084e-05
6.60387735140526e-05
6.19129493883558e-05
6.01759663187691e-05
6.11647282340124e-05
6.49259201169047e-05
7.20801988272274e-05
8.38110251987184e-05
0.000100425609206392
0.000115479303051456
0.000108324500676419
7.91427283603151e-05
4.96717741296062e-05
3.02349537250429e-05
2.19979998880897e-05
3.95082673050559e-05
3.78178971639242e-05
2.86320823562371e-05
1.55754712180309e-05
5.79092468864787e-06
1.36295798195558e-06
2.6529818046396e-07
1.06233329834914e-07
9.50797357566266e-08
8.21024093257329e-08
6.84732000839716e-08
6.40022081971801e-08
6.81431900356107e-08
7.91073649459409e-08
9.66834401748889e-08
1.22459230738795e-07
1.595787692806e-07
2.12094469211448e-07
2.84523526136083e-07
3.82020894518899e-07
5.11781089911231e-07
6.81109740557898e-07
8.94443854798828e-07
1.15303777825177e-06
1.4558124748645e-06
1.8012643862417e-06
2.18329587437636e-06
2.58630909564374e-06
3.00688548180237e-06
3.45669394690592e-06
4.00261049378713e-06
4.79118571206387e-06
6.27713042995591e-06
9.08856366026813e-06
1.28086568505632e-05
1.73544604627198e-05
2.28000890509802e-05
2.90992203414764e-05
3.62187706471401e-05
4.40910885949889e-05
5.26598257158004e-05
6.18657421456301e-05
7.16605728680018e-05
8.20008227203105e-05
9.28491635686399e-05
0.000104170460019145
0.000115930063670183
0.000128091349157839
0.000140614206442566
0.000153453906990591
0.00016656054355886
0.00017987897356948
0.000193349176715602
0.000206907091546913
0.000220486367195457
0.000234024313011026
0.00024745057810639
0.000260681506415472
0.000273631797383288
0.000286222504340483
0.000298383673021572
0.000310047911381959
0.000321152816199206
0.000331641533659535
0.000341463387335565
0.000350574325162217
0.000358937206461997
0.000366521935222159
0.000373305447611588
0.000379271566608087
0.000384410740500629
0.00038871967690372
0.000392200897768884
0.000394862221548373
0.000396716199172636
0.000397779513812309
0.000398072361575786
0.000397617817093889
0.000396441209807784
0.000394569493134153
0.000392030656982184
0.000388853110834424
0.000385065171269719
0.000380694432147134
0.00037576738704489
0.000370308695063256
0.000364341049457946
0.000357884167727294
0.000350955119133685
0.000343566791351599
0.000335728842451518
0.000327445737047603
0.000318717761036171
0.00030954015531284
0.000299901600604042
0.000289789365709595
0.000279177904397751
0.000268051835362318
0.000256370000621539
0.000244126044691121
0.000231268078245885
0.000217817109910576
0.000203741315378011
0.000189139629833236
0.000174080422591213
0.000158481831841781
0.000142209521611906
0.000125421065073883
0.000126151058239934
0.000136127320351411
0.000151292255491205
0.00016764515139711
0.000182825220985018
0.000195334394260906
0.000204639312097477
0.00021185803872784
0.000216915608353798
0.00021947577391932
0.000219603931995239
0.000217472534006883
0.000213140392436528
0.000205588272758513
0.000194551708290711
0.000181612027180656
0.000168281719050231
0.000155570656817874
0.000144396554479252
0.000135759862637378
0.000132292134840899
0.000134604389697077
0.00014277101600696
0.000158081528325767
0.0001828667688153
0.000217266800012293
0.000247467514422004
0.000230737959471467
0.000166529198821069
0.000102737556906979
6.18572626757796e-05
4.48050077483296e-05
7.27140715012273e-05
6.98683683128295e-05
5.40316763723439e-05
3.01356381362014e-05
1.16595955868137e-05
2.92390400808709e-06
5.94681872549889e-07
2.26305226489177e-07
1.9739706090956e-07
1.71374493153099e-07
1.43007752590199e-07
1.32879478805579e-07
1.40524689060625e-07
1.62287673074744e-07
1.97581222628284e-07
2.49457651854874e-07
3.24190397349936e-07
4.2996804431464e-07
5.76123663825719e-07
7.73357187100472e-07
1.03638641809107e-06
1.38038542879205e-06
1.81481910137747e-06
2.34229746349136e-06
2.95955113645023e-06
3.66117524533984e-06
4.43301401564007e-06
5.24100401429924e-06
6.07381269677e-06
6.95120871716641e-06
8.00414202551345e-06
9.54071753723494e-06
1.24668603568168e-05
1.79568843877292e-05
2.52069748151615e-05
3.40611604742375e-05
4.46591124525479e-05
5.69130642507887e-05
7.07555373892903e-05
8.60520089913105e-05
0.000102685312833526
0.000120531493045004
0.000139485247321195
0.000159449589418658
0.000180338328631809
0.00020206927895354
0.000224561212591281
0.000247729762226639
0.000271484979059133
0.000295729733857278
0.000320359127122886
0.000345260847289223
0.000370316320476661
0.000395403166037709
0.000420399943743373
0.000445189814536267
0.000469635550892738
0.000493592985246935
0.000516921547932456
0.000539493449580636
0.000561194687062826
0.000581918046806969
0.000601566309207242
0.000620052815830284
0.000637302124757297
0.000653250381889222
0.000667845456429015
0.000681046859678497
0.000692825466403874
0.000703163063053667
0.000712051750938695
0.000719493221839813
0.000725497945120482
0.000730084271563513
0.000733277492829403
0.000735108867879756
0.000735614638281548
0.000734835033941731
0.0007328133054209
0.000729594751115074
0.000725225813264468
0.000719753128246374
0.000713222730785602
0.000705679076365695
0.000697164427899489
0.000687717711470983
0.0006773742191746
0.000666164073130201
0.000654112472340254
0.000641237534405861
0.000627551056657186
0.000613056310603845
0.000597747775831705
0.000581612177812007
0.000564622008562043
0.000546748835700101
0.000527937660079162
0.000508152704078626
0.000487308038211402
0.000465379350098557
0.00044225632719419
0.000417958574724529
0.000392401568198182
0.000365738641227962
0.000338053006430817
0.000309222748141771
0.0002789492563611
0.000247552553155955
0.000248327940105628
0.000267024249492291
0.00029546567097592
0.000326140463055579
0.00035460156613978
0.000378171668070886
0.000395943430869266
0.000409850774845205
0.000419690385073702
0.000424851957006226
0.000425442903006952
0.000421743190117147
0.000413787465503692
0.000399728342188171
0.000379172649583369
0.000355037982487262
0.000330093245573188
0.000306246307925145
0.000285288522733841
0.000269257800698636
0.000263185037091112
0.000268126110660571
0.000284165428703141
0.000313632841428523
0.000360512649644991
0.000424054435921192
0.000478287947474956