/*--------------------------------*- C++ -*----------------------------------*\
| =========                 |                                                 |
| \\      /  F ield         | OpenFOAM: The Open Source CFD Toolbox           |
|  \\    /   O peration     | Version:  4.1                                   |
|   \\  /    A nd           | Web:      www.OpenFOAM.org                      |
|    \\/     M anipulation  |                                                 |
\*---------------------------------------------------------------------------*/
FoamFile
{
    version     2.0;
    format      ascii;
    class       volScalarField;
    location    "30000";
    object      omega;
}
// * * * * * * * * * * * * * * * * * * * * * * * * * * * * * * * * * * * * * //

dimensions      [0 0 -1 0 0 0 0];

internalField   nonuniform List<scalar> 
21000
(
19860.9674686877
19851.4342243332
19892.6669621091
20214.5135329214
21214.7284329198
22764.218603961
23788.7277414339
23967.9481361239
23387.5884297006
22263.1847064113
20769.9039507937
19052.9279312944
17314.6804623762
15813.3349799399
14538.2364770035
13447.1709076154
12507.1593044886
11692.1545611851
10979.4786891115
10308.530577764
9634.80049685427
8966.7898194406
8313.62898255775
7683.47536600189
7084.67953590848
6537.34983789457
6072.54161976255
5690.10707622327
5386.76904837316
5161.36061908906
5014.51539370615
4948.39073211642
4958.58457664147
4965.24163783721
4965.24167962012
4965.24174254377
4965.24182032223
4965.24191618911
4965.24202442
4965.24214394353
4965.24227024661
4965.24240117701
4965.24253364344
4965.24266577126
4965.24279555325
4965.24292157355
4965.24304246008
4965.24315711726
4965.24326451074
4965.24336375107
4965.24345401888
4965.24353460459
4965.24360489112
4965.24366437629
4965.24371267562
4965.2437495365
4965.24377483938
4965.24378860987
4965.24379100889
4965.24378233627
4965.24376303152
4965.24373365005
4965.24369485568
4965.24364740358
4965.24359212392
4965.24352990364
4965.24346166706
4965.24338835966
4965.24331092727
4965.24323030458
4965.24314739462
4965.24306306081
4965.24297811632
4965.24289331105
4965.24280933073
4965.24272678781
4965.24264622429
4965.24256810505
4965.24249282329
4965.24242070158
4965.24235199364
4965.24228689037
4965.24222552267
4965.24216796786
4965.24211425509
4965.24206437176
4965.24201826264
4965.24197585119
4965.24193701697
4965.24190164383
4965.24186955842
4965.24184063595
4965.24181465269
4965.24179151365
4965.24177092982
4965.2417528937
4965.24173700706
4965.24172344885
4965.24171160272
4965.24170202645
4965.24169364817
4965.24168777623
4965.24168238897
4965.24168029482
4965.24167747383
4965.24167953419
4965.24167812511
4958.58465260728
4948.39082881262
5014.51549710506
5161.36073235869
5386.76916009257
5690.10718170835
6072.54170951077
6537.3499077079
7084.67958277881
7683.47539114937
8313.62901378723
8966.78989604543
9634.80065312887
10308.5308579974
10979.4791379731
11692.1552087868
12507.1601758774
13447.1720398626
14538.2379175365
15813.336812984
17314.6828137071
19052.9310965445
20769.9084708519
22263.1913206145
23387.5982255796
23967.9628787724
23788.7498173665
22764.2494502702
21214.7608316682
20214.5335762488
19892.6752488941
19851.436179395
19860.9676553817
3422.19832204563
3418.34561350434
3426.42304822774
3479.86972305353
3646.7642707553
3909.32196672597
4086.49519516397
4120.66204942401
4024.2241915973
3833.68672787665
3579.15289685586
3285.333749034
2986.4368251895
2727.29232159023
2507.08502352753
2318.68181460308
2156.3649918816
2015.64166710515
1892.75638362196
1777.43717982675
1661.80286943429
1547.08669813016
1434.85429134858
1326.51454532527
1223.46671741895
1129.06195019196
1048.71114482795
982.56660324322
930.098569971499
891.140221705256
865.813033341261
854.467326099666
855.881466781555
856.277821635849
856.198220021693
856.236186565692
856.2531961603
856.24624115885
856.223910287202
856.189508759482
856.148889310032
856.104578282371
856.059332419166
856.014136556597
855.969825308456
855.926471174368
855.884078756193
855.842406450849
855.801240696679
855.760338752165
855.719526249673
855.678671957402
855.637715651369
855.596650418165
855.555524242077
855.514429764375
855.473495186256
855.433182882494
855.410884316753
855.393472627966
855.376127823151
855.358957971558
855.342068359489
855.325561293209
855.309534219776
855.294077950825
855.279275319725
855.265200132929
855.251916442628
855.239478158144
855.227928848901
855.217301918042
855.207620855297
855.198899793094
855.191144126727
855.184351352679
855.178511824135
855.173609879
855.169624480606
855.166530804177
855.16430021832
855.162903055569
855.162306575742
855.162481069319
855.1633922338
855.165016325257
855.167317907695
855.170288386295
855.173886811309
855.178135948768
855.182974667732
855.18848838733
855.194558556562
855.201396852951
855.208742056458
855.217059735854
855.225758653741
855.235825608343
855.245922677609
855.258134552486
855.269437854973
855.284321037782
855.295956110782
855.323258222757
855.343796535015
855.396257073182
855.520089603111
855.347695328293
854.318076112365
865.805896826536
891.127834792474
930.083479282818
982.505202625523
1048.5907770375
1128.8703785666
1223.18390352864
1326.1158801652
1434.33314490431
1546.4593706218
1661.09458820865
1776.67944392791
1892.0036446771
2014.92317849567
2155.66808248257
2317.98484154782
2506.36375570876
2726.47156173886
2985.43106465764
3283.95730178212
3577.45382331053
3831.71472634827
4022.01571226675
4118.31689120355
4084.47290486438
3908.33411700874
3650.10201297629
3489.10477728957
3436.00541104094
3427.90837957371
3424.42996755079
1142.11231025839
1140.37926093136
1141.18349246748
1157.98974680935
1213.37160918795
1301.51320236336
1361.01019331529
1373.29415490303
1342.2092351288
1279.55025597304
1195.31479104786
1097.72123685119
998.065734819159
911.402004130552
837.720350020123
774.670097865237
720.353125383204
673.266159562431
632.194275706411
593.746674933025
555.238993706504
517.023807300981
479.621227745344
443.50123857194
409.114474809286
377.552276710437
350.643671079971
328.489494379167
310.921106410211
297.866755181996
289.381520925562
285.548386092793
285.677625094861
285.570152049993
285.497693915571
285.510960710072
285.522523752434
285.535041433073
285.547096810103
285.559397842992
285.571366152721
285.583058520678
285.594150639285
285.604535358405
285.614008190925
285.622453305817
285.629741299735
285.635786785197
285.640513893449
285.643874155894
285.645834585964
285.646383189678
285.645524620225
285.643281785399
285.639694636332
285.634825283033
285.628919867209
285.623583282761
285.590166553925
285.557152835329
285.524200701141
285.491525083828
285.459333670214
285.427826830457
285.397194248909
285.367611907179
285.339239804662
285.312220238034
285.286676657292
285.262713096658
285.24041398973
285.219844563354
285.201051432752
285.184063655258
285.168893943593
285.155540171172
285.143986856121
285.13420705648
285.126163807797
285.119812504059
285.115101694637
285.111976635024
285.110378057889
285.110249031113
285.111528111033
285.11416526006
285.118100331898
285.123302463924
285.129711455207
285.137334885449
285.146101187294
285.156090198776
285.167186032001
285.179605135934
285.193108779663
285.208170986695
285.224255945281
285.242339666236
285.261193951382
285.282820113913
285.304379069956
285.330137972492
285.353378127884
285.37405919433
285.380012181069
285.38401237251
285.47665328462
285.599734886852
285.50773200886
289.392810609688
297.864834809768
310.852293905606
328.336270774388
350.386188520066
377.169928002587
408.57463279406
442.794147616124
478.763659784032
516.037225599554
554.154481135887
592.605157201027
631.074978844925
672.202408723981
719.303897823138
773.596935683258
836.575587091169
910.103994144542
996.482555585807
1095.57726255545
1192.68175667347
1276.52692042256
1338.87290181018
1369.81479597455
1358.02027746577
1301.38593647095
1218.42439681017
1161.84914874052
1143.60488926272
1141.73809485482
1142.62350957042
531.079378128914
529.620966675452
530.793221917047
538.651524694936
563.116085015517
602.402872579633
628.951723659503
634.72498086802
620.794421886834
592.22570671572
553.570268208242
508.632010078278
462.597980238982
422.443156078769
388.282293779083
359.049680561735
333.86525323749
312.031699200587
292.995849199013
275.210494929442
257.418085871326
239.753028506956
222.455247212423
205.744761367687
189.831017863666
175.210673781397
162.726460792432
152.452380951008
144.311114464205
138.283655806147
134.396773140037
132.724194594238
132.881381480996
132.809474363895
132.794418219176
132.828273294615
132.848721929823
132.861711038497
132.867087454616
132.868023625205
132.865456923097
132.860696312294
132.854177428681
132.846227237305
132.836854926779
132.826001297216
132.813528423158
132.799303507925
132.783208765584
132.765166908304
132.745144520454
132.723156492494
132.699263693385
132.673570445093
132.646226559355
132.617458258989
132.587439405967
132.553354370289
132.503207535995
132.453421720182
132.403970641409
132.355172489124
132.307329426949
132.260728025311
132.215635041406
132.172293918356
132.130922279347
132.091710208272
132.054819303994
132.020382465609
131.98850419824
131.959261595563
131.932705595334
131.908862747972
131.887737179264
131.869312839115
131.853555757739
131.840416655575
131.829833159513
131.821732793471
131.816034612507
131.812653130715
131.811498186588
131.812481630718
131.815512367564
131.820510742038
131.827391093893
131.836096137624
131.846547951401
131.858731392874
131.872570627447
131.888124145793
131.905295548902
131.924272099738
131.944878776063
131.9675259015
131.991828686229
132.018599573767
132.046936373462
132.078431007606
132.11091604987
132.147718570615
132.183388511894
132.218161609955
132.240406417727
132.265380079845
132.33837917025
132.523751268022
132.54189462613
134.331578331413
138.202585919401
144.150993078782
152.173362053153
162.304016233248
174.616265131912
189.024604013995
204.712897520061
221.217273136102
238.339368375825
255.874084294449
273.597212248339
291.41909016386
310.54039725911
332.415835545979
357.596348448358
386.762893208139
420.747699291113
460.546920446891
505.886638480059
550.210810845529
588.392410016386
616.597935645098
630.35917192843
625.044409190553
601.287010290903
568.524750935869
545.796476372687
537.753867109229
535.446141733508
533.050404308546
298.660596601649
296.945507734337
298.630994688519
303.399289387227
315.7910916602
335.746286314805
349.136288008644
352.174870210911
344.704023099657
329.114227209584
307.83974574222
283.004653490253
257.487297441327
235.158283596356
216.149780127782
199.885596302172
185.873376066496
173.723889391603
163.130148810331
153.245659510983
143.36723099065
133.55270958145
123.935656214054
114.641754878411
105.792061541127
97.6616392506264
90.711897847205
84.9986467268383
80.4841882545752
77.1716304933968
75.0799622324329
74.2997530870376
74.5738216804717
74.5748248615852
74.59909829873
74.6477704814659
74.6712414495
74.6788887560561
74.6720182649784
74.6561833940618
74.6337778022677
74.6072940224089
74.5778766745403
74.5462831004387
74.5127510626157
74.4773268758939
74.439922105156
74.4004278398472
74.3587549402411
74.3148674680496
74.2687946208311
74.2206337451749
74.1705474111637
74.1187578480056
74.0655515739403
74.0113119640869
73.9562282684814
73.895416100436
73.8278520744816
73.7612413130719
73.6957165811295
73.631668594192
73.5694581854537
73.509419261765
73.4518547100093
73.3970334366492
73.3451885580595
73.2965165031598
73.2511769724615
73.2092936615551
73.1709555297784
73.1362187147161
73.1051086961544
73.0776229183317
73.053733552139
73.0333904631834
73.0165241491966
73.0030489225658
72.99286571642
72.9858654741707
72.9819313748291
72.9809429009693
72.9827765247706
72.9873119946062
72.9944289870157
73.0040197588391
73.0159755011687
73.03021551914
73.0466476410865
73.0652376923112
73.0859094226951
73.1087037422689
73.1335473479687
73.1606018700852
73.1897585304226
73.2213684332987
73.2551972438135
73.2919031955312
73.3309022306259
73.373399898933
73.4178806698292
73.4667691613539
73.5158835937681
73.5657362697833
73.6061506143118
73.6514949862326
73.7240251402987
73.9199589491502
73.9295674715973
74.8874229990653
76.9672211443734
80.1911154951007
84.5595624028548
90.0928813502698
96.8290155300338
104.698361638961
113.271015841122
122.309491274551
131.70944009512
141.36422334995
151.160998918959
161.09096252715
171.794159738687
184.011588293838
198.040886094667
214.248217177491
233.065877029924
254.984807220303
279.701023784537
303.798671063958
324.494995098037
339.626042466747
346.789513685727
343.888422333938
332.565513169081
319.452232375035
311.682140697054
309.022787795592
306.721888125012
302.117257646374
190.354315675495
188.121787099033
189.93995312239
193.411998332961
200.007066754049
210.431705247699
217.207004614239
218.761853347326
214.283262901458
204.800563604326
191.712890730059
176.352544101374
160.523582919435
146.626619255733
134.788099575977
124.661732816488
115.937718601965
108.371867247536
101.770197555174
95.6145042910659
89.4671312574482
83.3532937936334
77.3569368364217
71.5601266586979
66.0442614212002
60.982400315995
56.6546297184935
53.1064558616344
50.3194960901161
48.309315905861
47.0961432912219
46.7822547661372
47.1531306824979
47.2140804714859
47.2619953808313
47.3146076290531
47.3317363966968
47.3256285627712
47.2994569281107
47.2607183768067
47.2131301655201
47.1601320511655
47.1034673324779
47.0442588144158
46.9829672656238
46.9197757697574
46.8546959541613
46.7877033254013
46.7187950897669
46.6480275959611
46.5755309388688
46.5015096207959
46.4262378024571
46.3500524347988
46.2733508579883
46.19650969239
46.1191848392557
46.0379753089307
45.9552853230283
45.8746406116686
45.7962665953796
45.7205642490762
45.6478909944382
45.5785666213409
45.5128703868669
45.4510395594478
45.3932690895104
45.339712150231
45.2904814511897
45.2456511954319
45.2052594667925
45.1693111020572
45.1377806886804
45.1106158705911
45.0877406679873
45.0690588718684
45.0544573254558
45.0438093235181
45.03697762509
45.0338178799532
45.034181046025
45.0379172820131
45.0448770358509
45.0549167312017
45.067896532188
45.0836913117873
45.1021800357211
45.1232703525758
45.1468669250274
45.1729288684518
45.2013896517138
45.2322857487431
45.2655745281631
45.3014076644498
45.3397443462415
45.3809003158496
45.4247793642308
45.4719317950101
45.5220463680551
45.5760425865486
45.63293960297
45.6944662220439
45.7574767857842
45.8223491792862
45.8804917437532
45.9441566093883
46.0248098741855
46.2175387287876
46.1941950829486
46.7357079904057
47.9475463392802
49.8619280887181
52.481345262571
55.8186339087831
59.8952372242481
64.6522583897113
69.8451137328246
75.3417907045783
81.0817710673094
87.0053456029727
93.0533287632257
99.252467691099
105.975722805309
113.627486358884
122.383416961764
132.45838194279
144.091974741126
157.532232822157
172.467499736106
186.955327610622
199.322806357646
208.188515522813
212.104351015891
210.117164461274
204.227702136949
200.031872714301
200.169312180284
201.597777752096
200.393292263052
194.969529565504
133.078751720395
130.252304168105
131.866268661922
134.725849270413
138.177968837613
143.131511414074
145.979328728823
146.545140872559
143.634763402071
137.447383488317
128.784088358761
118.545397139811
107.963096148698
98.6406694544398
90.6935933577283
83.8992111547954
78.0463631562506
72.9689586317453
68.5324351938667
64.3947797135695
60.2641517209539
56.1503348081619
52.1109438406849
48.205219634874
44.4944233874048
41.0978357208853
38.1972442943296
35.8315566262061
33.99396143633
32.7080533677754
31.9992598007976
31.9699104548555
32.4064080968594
32.5073432883075
32.5640053893544
32.6074472916678
32.6064903540912
32.5759525997533
32.5214170585808
32.4520596480619
32.3728697827511
32.2880520309406
32.1998549634786
32.109690863019
32.0182109293525
31.9257229556159
31.8323390368629
31.7381219329854
31.6431527509629
31.5475684386732
31.4515758146187
31.3554494266081
31.2595247969763
31.1641883508781
31.0698570643899
30.9768042665633
30.8839276085092
30.7906227904609
30.6989708200788
30.6107065297973
30.526053681439
30.4453399989167
30.3688425078225
30.2967958690806
30.2293914402789
30.1667778201125
30.1090622663565
30.056312742541
30.0085604785145
29.9658029096309
29.9280068133167
29.8951116796683
29.8670330236669
29.8436658106099
29.8248877508803
29.8105625376886
29.8005428961751
29.7946736493276
29.7927944076816
29.794742554651
29.800355388674
29.8094734627838
29.8219416568288
29.837614025682
29.8563522487462
29.8780349053263
29.9025492853677
29.9298118678962
29.9597433852478
29.9923158719257
30.027489599957
30.0653160243047
30.1057967346663
30.1490952429338
30.1952453627214
30.2445593139512
30.2970695690173
30.3532791680162
30.413102074929
30.4773020028777
30.5452998859091
30.6184008031368
30.6942115037156
30.7729883546511
30.8474129358284
30.9276918718723
31.0194230144132
31.2052263364641
31.1461719751937
31.4442179254229
32.1701245682772
33.3594006216508
35.0157702519567
37.1468274649439
39.7652173290847
42.8197203105605
46.1670880328218
49.7311344961333
53.4747698116411
57.3638314870602
61.3685656948068
65.5325900868018
70.0859870518227
75.2536730980992
81.1419160038076
87.8815857469018
95.6054158979141
104.427616668847
114.034890494529
123.259114034903
131.033328495537
136.405100861431
138.431529727663
136.730448122454
133.335744224618
133.281533821116
137.777198947203
142.566311175238
143.338713610871
138.333354978467
100.027222885788
96.7199620270701
97.9218252267722
100.472483220651
102.138210147425
103.604368988722
103.793086780427
103.578844863296
101.546689507705
97.3119583877672
91.2795263941318
84.0865434626105
76.6295402050002
70.037430148574
64.4141425170654
59.6099613348486
55.4723591970864
51.8813419558295
48.7367186234868
45.8004070107783
42.8686106289595
39.9435667350936
37.0677394493841
34.2875020435185
31.6530345190137
29.2523806473506
27.2092177573591
25.5578984523377
24.2996602852169
23.4635990970798
23.080814768461
23.2406405235793
23.7114374661307
23.8307862988972
23.8803582920249
23.900226622355
23.8686033629646
23.8029625339361
23.7117053079115
23.6055038326833
23.4904872422528
23.3714059104336
23.2508422694558
23.1303485092468
23.0106494431224
22.8920800103196
22.774765802839
22.6587727153595
22.5441783733947
22.4311069097526
22.3197407757072
22.2103162404351
22.1031149256566
21.9984467016255
21.896584095486
21.7974858756598
21.700157239378
21.6053344930815
21.5142213888388
21.4276494229143
21.3457420267278
21.2686774593209
21.1965881310142
21.1295699591739
21.0676832441827
21.0109547453
20.9593802166186
20.9129272132617
20.8715380757403
20.8351329915187
20.8036130113386
20.7768630677128
20.7547547886042
20.7371492767476
20.7238996757249
20.7148536128629
20.7098554420414
20.7087484697223
20.7113768741702
20.7175878682675
20.7272332261483
20.7401718007895
20.7562703154187
20.7754072157818
20.7974715649584
20.8223706135446
20.8500237093638
20.8803789715873
20.9133943710545
20.9490755641119
20.98742776548
21.0285369785978
21.0724630992914
21.1194031276195
21.1694726166041
21.2230129384857
21.2801772569202
21.3414858916466
21.4070363066031
21.4775757139685
21.5528130862294
21.6339202834767
21.7190124241296
21.8084908867243
21.8959298319872
21.9900305870672
22.0922740299773
22.2704076350374
22.182046733927
22.3231812983534
22.7514334021635
23.5006131684181
24.575665271206
25.9798633059229
27.7202957853122
29.7522225448485
31.9916802954893
34.3943554762346
36.9368908563719
39.6000807849668
42.3713621282481
45.301284181618
48.5383835271631
52.2059530176128
56.366604718494
61.0998899943854
66.4741730955734
72.5241377124676
78.9404020421991
84.9891807395541
89.9693696787098
93.1999628988635
94.0443166410668
92.426342314411
90.2220620029558
91.8849943544976
98.4676282062925
105.739640598588
108.887542005293
105.270671768299
79.4844277997019
75.9761376587322
76.7166496624489
79.1245686580945
79.8253065846961
78.9334652863418
77.115702005884
76.206107552939
74.6713430150716
71.6721358921405
67.3171797559069
62.0665603415746
56.6056574824791
51.7612030742606
47.626312019059
44.0972098027164
41.0587255041896
38.4199146567754
36.1019793986236
33.9325585092716
31.7648173271568
29.5975012605329
27.4639491312503
25.4029909791511
23.4583366280467
21.6984523579314
20.2105969296134
19.0258078631244
18.1513870540648
17.6199740245074
17.4659087760918
17.7535391313425
18.2285713106704
18.3443212684975
18.3703065526755
18.3526164149657
18.2793176509892
18.1707947701518
18.0383471971822
17.8938376698203
17.7441736572865
17.594270337751
17.4467047692986
17.3028775839576
17.1633377919758
17.0282310862934
16.8975015607974
16.7710378035082
16.6487423255476
16.5305615887612
16.4164946963603
16.3065870264492
16.2009193428429
16.0995851307659
16.0026092014503
15.909403087028
15.819812055875
15.7343972897321
15.6537314760386
15.5781143372936
15.5075180948174
15.4419471062203
15.3813767635079
15.325761711499
15.2750372075948
15.2291212875816
15.1879170506399
15.1513149535827
15.1191950686468
15.0914292540582
15.067883175129
15.0484182372871
15.0328932990971
15.0211663238706
15.0130958466252
15.0085423471309
15.0073694896083
15.0094453799704
15.0146436347488
15.0228446879168
15.0339366859433
15.0478172063159
15.0643937666969
15.0835867451883
15.1053286771005
15.1295702517414
15.1562761283499
15.1854381729062
15.2170619230841
15.251196356473
15.2878986717252
15.3272976372716
15.3695142055225
15.4147885042609
15.4633139061141
15.5154797007567
15.5715444440488
15.6320901452199
15.6973646074682
15.7681988961389
15.8445331824843
15.9276143177522
16.0159810544401
16.1104063084727
16.2052734852186
16.3082216170966
16.417822258103
16.5873932526368
16.4820990572709
16.5190885151559
16.7567486271732
17.2252786836418
17.9305451090639
18.8720360829676
20.0527310870356
21.4342032554731
22.9675388265433
24.6271600219177
26.3981215393855
28.2700436808582
30.2402517746355
32.3595110724298
34.7278762946056
37.4108676061373
40.4430117118652
43.8710388308198
47.7236723333519
51.9880797821284
56.3682381019922
60.3847252307035
63.5739040645035
65.450205858976
65.5893272534716
64.0826559220134
62.5309015013564
64.6491339737934
71.7078464421011
80.3538803729759
85.7145689936367
84.0619650150835
65.6482090723773
62.3101095323636
62.6924081912886
65.0859120889823
65.3987629567469
62.9050937125875
59.4495968755595
57.8583619906067
56.5846707092873
54.4031268368209
51.1756736417458
47.2316338687297
43.1151301690186
39.4506143442016
36.3214429585974
33.6541588407458
31.3586708841899
29.3632520443523
27.6032684779102
25.9502181425221
24.2960949860943
22.6384272586262
21.0049777597256
19.4301048917553
17.9535100187874
16.6305528026553
15.5247228296095
14.6644962222163
14.0617392417429
13.7505620641202
13.7638783961845
14.1321334558006
14.5833158839918
14.6742115918406
14.6611440996328
14.5948233837229
14.4733320994398
14.3200082493236
14.1485890393629
13.9714569955418
13.7955717716613
13.6253653826522
13.4628532795917
13.3088313893571
13.1633005201526
13.0259115862291
12.8961711270481
12.7735740017592
12.657662826352
12.5480492152337
12.4444165051937
12.346509971176
12.2541206746437
12.1670405042841
12.0849378423651
12.0071747887589
11.9338363492199
11.865106462273
11.8011368150512
11.7419159198953
11.6872926439796
11.637143634929
11.5913372496453
11.5497388064629
11.512210965037
11.478614688951
11.448810246232
11.4226581914943
11.40002031111
11.3807605076067
11.364745591618
11.351846035901
11.3419366026905
11.3348969714494
11.3306122768632
11.3289736298739
11.3298785992104
11.3332317642769
11.3389451949462
11.346939168643
11.3571426639857
11.3694945246498
11.3839438399463
11.4004521621284
11.4189932150711
11.439557592993
11.4621502052523
11.4868006101061
11.5135539368399
11.5424939753089
11.573718320813
11.6073877130199
11.6436675287767
11.6828288816412
11.7251193053432
11.7709648630547
11.8206986965978
11.8749585231944
11.9341093775849
11.9990775332619
12.0700153978931
12.1483035351014
12.2329407044235
12.3251263786923
12.4202395429702
12.5250692063649
12.6370454563081
12.7950485895658
12.688280717791
12.6588721688203
12.7747715584416
13.0625600328665
13.528373815356
14.1687959327747
14.983534716966
15.9403737751767
17.0105357433072
18.1792455506011
19.4366812392334
20.7773657761082
22.2036661558627
23.7617506355476
25.5215263804255
27.5169447140444
29.7653119832194
32.2925281166435
35.1040789206472
38.1614503082546
41.1944467303506
43.8790114191915
45.9124008292622
46.960032481328
46.7543599115764
45.4652308622291
44.3641865893855
46.3402753168329
52.8212497058514
61.6882427496109
68.6279672943435
69.0532951289831
55.4421489521724
52.6287434238133
52.8587617320348
55.3647705372351
55.7405151264819
52.2402210750309
47.3868878753667
45.0840556801675
43.9063379952318
42.2803999135192
39.8421887858001
36.8147303337985
33.6422423271913
30.8084895406
28.3881392383898
26.3284063410951
24.5567321736993
23.014590525193
21.6472761985534
20.3568666590684
19.0629301720358
17.7631413166136
16.4819212955317
15.2510041258898
14.1073870568772
13.0970864918229
12.2675855397931
11.645180046275
11.244806014085
11.0995203282796
11.2349693743586
11.6433848237076
12.0457500690592
12.0931167732755
12.0291434239025
11.9088693795889
11.7398474749074
11.5477165138046
11.3474193848777
11.1506424998064
10.9632784801162
10.7884000195353
10.6267918531617
10.478164956783
10.341630170833
10.216108021902
10.1005080372257
9.99382940544741
9.89519629781647
9.80386119989635
9.71919456438133
9.64066602320717
9.56782123920432
9.50023046906865
9.43719292621394
9.37842909390106
9.32384168438728
9.27338044242072
9.22697185245275
9.18446183036805
9.14564815921307
9.11035692001379
9.07842067523178
9.04968058567593
9.02398550332261
9.00119160503266
8.98116215659891
8.96376736037492
8.94888426461213
8.93639671002818
8.92619528560232
8.91817732687276
8.91224688745677
8.90831477365982
8.90629857044414
8.90612270905
8.90771856036283
8.91102462961459
8.91598675162106
8.92255850464323
8.93070152473625
8.94038634922079
8.95159277908913
8.96431160804395
8.97854467113535
8.99430853152766
9.01163312874513
9.03056979987275
9.05118547216065
9.07358052038173
9.09787147480723
9.12422970810798
9.15283808391011
9.18397265193565
9.21790110329888
9.25505167804159
9.29578985501938
9.34076190648144
9.39040308981484
9.44567111131174
9.50689252988839
9.57550855201137
9.65099135291859
9.73483721574333
9.82361135282937
9.92330124021923
10.031586751193
10.1749540097621
10.0791455399429
10.0128373633185
10.0541507907807
10.227675316504
10.5391806848454
10.983496246979
11.5578288988428
12.2357774109888
12.9996550346498
13.8406411776448
14.7519622658973
15.7305917174281
16.7808170121107
17.9415416335344
19.2627968417617
20.7621119872891
22.4470126561184
24.3307168808664
26.4067015607004
28.6262784097794
30.7560291260985
32.5714208920769
33.8791322191657
34.4591737206421
34.1542714001753
33.1500689207048
32.399295634718
34.0313922177386
39.4235779032393
47.5859047399611
55.2298858656727
57.4287014587314
47.2418768641814
45.1921750140229
45.4986909541401
48.2384583076875
49.0439816894286
45.0660011130455
39.0158132320898
35.9422743844023
34.7299686124845
33.4835407660025
31.6152741091897
29.252922268044
26.7659206048992
24.537185597384
22.6336806142999
21.0170246151668
19.6273112721209
18.4153709580344
17.3338597799678
16.3069828778053
15.2745530239414
14.2352450318985
13.2116044938021
12.2338466602149
11.3368844876941
10.5596334081883
9.93845740662222
9.49751754209548
9.25311600705658
9.23427493639201
9.45374093948021
9.86652093403447
10.1997853997128
10.1898860902545
10.0695842225373
9.89806793895522
9.69060632841127
9.47338159133662
9.26049573459711
9.06130128525511
8.87939305348026
8.71570857997076
8.56935241721383
8.43874149463099
8.32203683320192
8.21746253041463
8.12341843433141
8.03852559432127
7.96162254897749
7.89174205886387
7.82808210777692
7.76997414094145
7.71684229259143
7.66809492787546
7.62314412342681
7.58177592359264
7.54380353712332
7.50907877884853
7.47744647553308
7.44871971624768
7.42270395794508
7.39923112705072
7.37814589105058
7.35930573991372
7.34257939675273
7.32784575021913
7.31499300255074
7.30391797938891
7.2945255689233
7.28672825934767
7.28044574457287
7.27560461341294
7.27213806532189
7.26998571396419
7.26909342097654
7.26941319363027
7.27090313511607
7.27352749843901
7.27725677442473
7.28206796651155
7.28794483497576
7.29487855075161
7.30286806211172
7.31192147154369
7.32205629725407
7.33330238037403
7.34570130207381
7.35931262626573
7.37421025930457
7.39049633554245
7.40828910357344
7.42775342012387
7.4490687024039
7.47249399259422
7.49828978643262
7.52685558115799
7.55855289517666
7.59398854805988
7.63361875995693
7.6783562607887
7.72863716055212
7.78584954423947
7.84986300133453
7.9222667732975
8.00077964749192
8.09056611309367
8.19031565027278
8.31703137418959
8.23883261025784
8.15749266169733
8.15616316303254
8.25922656365045
8.47192235906081
8.78845699899642
9.20441854532253
9.6984694809841
10.2588988233211
10.8800667875739
11.5570251850664
12.2878553838563
13.077069144563
13.9558046833178
14.9603546256217
16.0998814530183
17.3766681592301
18.7965222870088
20.3479345172708
21.9818778835799
23.5065083081582
24.7635791418913
25.6317574941635
25.9715864849684
25.6952111556961
24.9682351836042
24.4804076448629
25.7624661889879
29.9936036138516
36.9352392030437
44.44866733728
47.8510180784169
40.2635161151273
39.0502813570924
39.6061085075611
42.6665402334919
44.1886767616593
40.227473046444
33.2063133598498
29.2834286124153
27.9200475506626
26.9258362918564
25.4786457290482
23.6124485497858
21.6370816407679
19.8613426777403
18.3453670285411
17.0609337345201
15.957502574845
14.9927304376485
14.1250450749808
13.2951947405138
12.4582762520068
11.6145051298666
10.7855192104674
10.0006205935624
9.29282055539325
8.69526660098986
8.23627551999769
7.9376086674095
7.81499144956444
7.89029674054173
8.15935368725375
8.54588530726743
8.79623161333358
8.72267012920978
8.54909461607899
8.33758731329688
8.10783890178599
7.88377446502343
7.67627409177985
7.49090787237039
7.32823045918681
7.18684522344778
7.06427421195105
6.95789136840561