/*--------------------------------*- C++ -*----------------------------------*\
| =========                 |                                                 |
| \\      /  F ield         | OpenFOAM: The Open Source CFD Toolbox           |
|  \\    /   O peration     | Version:  4.1                                   |
|   \\  /    A nd           | Web:      www.OpenFOAM.org                      |
|    \\/     M anipulation  |                                                 |
\*---------------------------------------------------------------------------*/
FoamFile
{
    version     2.0;
    format      ascii;
    class       volScalarField;
    location    "30000";
    object      p;
}
// * * * * * * * * * * * * * * * * * * * * * * * * * * * * * * * * * * * * * //

dimensions      [0 2 -2 0 0 0 0];

internalField   nonuniform List<scalar> 
21000
(
0.930025555708816
0.94891778119412
0.949708357812354
0.96728702929053
0.980743192313994
0.992680719384194
0.998801499996968
1.0018614349238
1.0039455029743
1.00540010144436
1.00671174805548
1.00780389483117
1.00876503817902
1.00962046678698
1.01042156460053
1.01115860348049
1.01187596507517
1.01256481019854
1.01325926198486
1.01395248391226
1.01464781922401
1.01534449601379
1.01603718360868
1.01671728911748
1.01737424608228
1.01799626887139
1.01859025197465
1.01915796328106
1.01966879944058
1.02017242725184
1.02053496423335
1.02097717255892
1.02095196261661
1.02129375999265
1.02149345305362
1.02190035985503
1.02239273547471
1.02310673852475
1.02401856589569
1.02518015124776
1.02658703569235
1.02825531972986
1.03018076874536
1.03236443826151
1.03480005031167
1.03748260993526
1.04040441571968
1.04355791659742
1.04693437197907
1.0505247578487
1.05431927773229
1.05830763602652
1.06247885896127
1.06682139194175
1.07132306001573
1.07597113219781
1.08075235049399
1.08565302548374
1.09065913258862
1.09575642629499
1.10093054492295
1.10616712852575
1.11145193940454
1.11677098067284
1.12211060871022
1.12745763906482
1.13279944208318
1.13812402765046
1.14342011750877
1.14867720429658
1.15388559780912
1.15903645737281
1.16412181237025
1.16913456995943
1.17406851276238
1.17891828538362
1.18367937451449
1.18834807796438
1.1929214742339
1.19739737601176
1.20177429995492
1.2060514002857
1.21022845897831
1.21430577841614
1.21828423711305
1.22216507913824
1.22595014285683
1.22964138622636
1.23324154488107
1.23675300573351
1.24017948835884
1.24352337318852
1.24678975019946
1.2499801941623
1.2531021609771
1.25615479689898
1.25915018516288
1.26208157770496
1.26497063170813
1.26779720661545
1.27060318769927
1.273338881881
1.27608901511415
1.2787402971572
1.28146743205561
1.28402429723039
1.28676546480638
1.28918901191987
1.29188623566275
1.29442390039994
1.29726631539725
1.30015265747951
1.30325591150349
1.30644291293729
1.30971936942485
1.31300319575608
1.31618802616588
1.31908254048877
1.32152960842894
1.32329982994704
1.3242592208515
1.32418182312003
1.32308861696231
1.32101616877361
1.31788239699912
1.31334336832305
1.30734316822366
1.29881015433759
1.28745049429087
1.26986456512161
1.24420514956279
1.20770374776037
1.15722170538499
1.08827122263106
1.00126424461257
0.909295257765168
0.862548156043353
0.871824698975859
0.885666405074458
0.92202415784242
0.930060351430114
0.94893563936317
0.949773759109202
0.967253619098148
0.980603637400294
0.992477994293247
0.998654809595542
1.00177042774597
1.00388694578082
1.00536037566641
1.00668127784056
1.00778263557413
1.00875123078866
1.00961237575422
1.01041804712155
1.01115881508651
1.01187885404071
1.01256951523196
1.01326457965536
1.01395813350251
1.01465363717031
1.01535057243646
1.01604386210485
1.0167251164413
1.01738394548033
1.01800805085777
1.01860345291695
1.01917252256782
1.01968369385442
1.02018799301809
1.02054974989693
1.02099317236072
1.02097347116856
1.02131857558521
1.02151956732446
1.0219283555889
1.02242186462769
1.02313686499374
1.02404927499227
1.02521126316174
1.02661832781167
1.02828665362747
1.03021200266513
1.03239545486581
1.0348307288742
1.03751283234504
1.04043405867188
1.04358685396924
1.04696247390969
1.05055189289149
1.05434531421623
1.05833244427219
1.06250231322253
1.06684337244758
1.07134345477542
1.07598983868676
1.08076927713289
1.08566809277468
1.09067227423533
1.09576758981847
1.10093969210229
1.10617423550309
1.11145699659292
1.11677399241103
1.1221115927118
1.12745662567887
1.13279647339767
1.1381191564679
1.14341340622465
1.14866872371258
1.15387542590734
1.1590246780827
1.16410851434813
1.16911984540671
1.17405245629847
1.17890099299127
1.18366094256571
1.18832860234244
1.19290104954802
1.19737609492251
1.20175225258927
1.20602867377533
1.21020513706741
1.21428194121213
1.21825996086446
1.2221404361939
1.22592520158569
1.22961621117916
1.23321619682626
1.23672754198273
1.24015396298059
1.24349783727334
1.24676425264037
1.24995478107062
1.25307687836514
1.25612968664852
1.25912529385135
1.26205694188332
1.26494630375045
1.26777321180487
1.27057959177992
1.27331568410798
1.27606630377438
1.27871801645516
1.28144566888373
1.28400290960086
1.28674424968383
1.28917074989416
1.29187988535589
1.29443296151803
1.29729148643337
1.30019396913289
1.30331373442691
1.30651466183472
1.30980209024152
1.31308989267485
1.31626784103129
1.31914349926876
1.32155936358505
1.32328790310101
1.32419684946251
1.32406680627914
1.32292490979581
1.32080235229181
1.31760716401517
1.31299593022049
1.30689359149816
1.29822191121405
1.28663189360098
1.26871154429774
1.24265318152188
1.2056918038452
1.1547169525982
1.08542869035542
0.998688768326415
0.908118927201608
0.862740420278123
0.872256293122401
0.88595778205421
0.922133373334345
0.930105878716873
0.94896934604099
0.949850443813087
0.967253198214529
0.98050237416437
0.992305619109567
0.998519736214566
1.00168280810161
1.00382992327645
1.00532164788755
1.00665171800061
1.00776180906092
1.00873758832395
1.00960424575986
1.0104143644504
1.01115875556367
1.01188145521334
1.01257392058705
1.01326962447239
1.01396346747376
1.01465907538675
1.01535616198922
1.01604990150435
1.0167321221484
1.01739265132599
1.01801873310475
1.01861555278894
1.01918605292273
1.01969772949485
1.0202030732117
1.02056455779397
1.02101066875885
1.02099608604491
1.0213451650467
1.02154688512118
1.02195727931319
1.02245137954657
1.02316697271142
1.02407952517201
1.02524156584764
1.02664848835728
1.02831659469841
1.03024161652723
1.03242466407888
1.03485944015166
1.03754095485971
1.04046149101222
1.04361349125006
1.04698820541322
1.05057660598545
1.05436889525812
1.05835478138708
1.06252329799439
1.06686290204996
1.07136143360201
1.07600617995273
1.0807839041067
1.08568093958357
1.09068328697003
1.09577672723772
1.10094692578895
1.106179549957
1.11146038909674
1.11677547268753
1.12211118239851
1.12745435764239
1.13279239091192
1.13811331228372
1.14340586155767
1.14865954717497
1.1538646924102
1.15901246773159
1.16409491135398
1.1691049370305
1.17403633184817
1.17888374287994
1.18364265744919
1.18830937233136
1.19288096352424
1.19735523991913
1.20173071331447
1.2060065321411
1.21018247196345
1.21425882810715
1.2182364719369
1.22211663980659
1.2259011630641
1.22959199166933
1.2331918554518
1.23670313291261
1.24012954075419
1.2434734492806
1.24673995186749
1.24993060748726
1.25305288888003
1.25610591041028
1.25910180191313
1.26203374232462
1.26492350145732
1.26775076774862
1.27055768321559
1.27329416603654
1.27604550032501
1.27869755169709
1.28142613154172
1.28398348348711
1.28672590463766
1.28915305754814
1.29187315046104
1.29443940775827
1.29731286228518
1.30022996992861
1.30336508603728
1.30657875970689
1.30987607993612
1.31316698292378
1.31633772673122
1.31919486923389
1.32158080913849
1.32326977485903
1.32413148606721
1.32395255275147
1.32276542154561
1.32059572445602
1.31734261867235
1.31266250836186
1.30646307683776
1.29765800542776
1.28584979702979
1.26761830828429
1.24119570212645
1.20382423329039
1.15243450165853
1.08292524976434
0.996583238847198
0.907416582263675
0.863205901811508
0.872779827174918
0.886275182843402
0.922268430394912
0.930168743160067
0.949014983307268
0.949929736284229
0.967256957322729
0.980414370473316
0.992149953056827
0.99839483657936
1.00159894958898
1.00377427065144
1.00528355434301
1.00662260478078
1.00774125252391
1.00872409601036
1.00959619385687
1.01041070798723
1.01115866603848
1.01188399183006
1.01257824721741
1.01327460802404
1.0139687440886
1.01466445344737
1.01536169099409
1.0160558824771
1.01673907314097
1.0174012955812
1.01802934586882
1.01862764903733
1.0191996176207
1.0197119845014
1.02021834925263
1.02058015094637
1.02102885900611
1.02101769871997
1.02137016443774
1.02157219993995
1.02198343402735
1.02247762606825
1.02319335647644
1.02410579508904
1.02526772899632
1.0266744660553
1.02834237353635
1.03026714223261
1.03244988768944
1.03488428820567
1.03756534656584
1.04048533176456
1.04363668041792
1.04701063633607
1.05059817017661
1.0543894838865
1.05837428791402
1.06254161976683
1.06687994213401
1.07137710219352
1.07602039571204
1.08079659481684
1.08569204277797
1.0906927510475
1.09578451214355
1.10095300285641
1.10618390203043
1.11146301040819
1.11677636856971
1.12211036884164
1.1274518607183
1.13278824608195
1.13810756361181
1.14339856085104
1.14865075307036
1.15385446943172
1.15900088533408
1.16408204297519
1.1690908591653
1.17402112316246
1.17886748337089
1.18362542767175
1.18829125268222
1.19286203361821
1.19733557801041
1.20171039585521
1.20598563332118
1.21016106350105
1.21423697882966
1.21821424792175
1.2220941037989
1.22587837527589
1.22956900852804
1.23316873181562
1.2366799189615
1.24010628742262
1.24345020051617
1.2467167574878
1.24990750443562
1.25302993103195
1.25608312443423
1.25907925558761
1.26201144248278
1.26490154907549
1.26772912543476
1.27053652405759
1.2732733516215
1.27602535369602
1.27867770554959
1.28140720569211
1.2839646685717
1.28670861797924
1.28913416549883
1.29186438153947
1.29444288682182
1.29733109493811
1.30026311478564
1.30341406939588
1.30664110987196
1.30994883781858
1.31324337043039
1.31640735131973
1.31924635485318
1.32160279893286
1.32325276671219
1.32406808238007
1.32384105145403
1.3226089858641
1.32039214262808
1.31708123581768
1.31233230952351
1.30603620623197
1.29709874375951
1.28507769647832
1.26654943408108
1.23978759821403
1.20204981442118
1.15032541322095
1.08073445116499
0.994972323913761
0.907300509776027
0.864067349579256
0.873426949581362
0.886612217763513
0.922412049703503
0.930253036745469
0.949075791592415
0.950019731127401
0.967264155740027
0.980329665155407
0.992000923321376
0.99827443288912
1.00151562245436
1.003717827011
1.00524455574907
1.00659269110397
1.00772008139182
1.00871017895246
1.00958788795765
1.01040694056999
1.01115856963711
1.0118865970377
1.01258270348149
1.01327975751948
1.01397419400858
1.01466999249906
1.01536737068879
1.01606201863168
1.01674620871217
1.01741017660837
1.01804025856806
1.01864015845687
1.01921366582921
1.01972691388506
1.02023422942864
1.02059686300931
1.02104782194765
1.02103858085374
1.02139374314898
1.02159569681405
1.0220069570195
1.02250076285123
1.02321620362998
1.02412833633896
1.025290079284
1.02669667249222
1.02836448499944
1.03028915240194
1.03247176585655
1.0349059686255
1.03758674500436
1.0405063466191
1.04365720153742
1.04703054771911
1.05061735460383
1.05440782508938
1.05839167313029
1.06255794128287
1.06689509886997
1.07139100097819
1.07603295237704
1.08080773375508
1.08570169857571
1.09070086950492
1.09579105001101
1.1009579278878
1.10618719317517
1.11146465768651
1.1167763728173
1.12210874130802
1.12744862254433
1.13278342766753
1.13810120389088
1.14339070649448
1.1486414576294
1.15384379245033
1.15898889143793
1.16406880096403
1.16907644111931
1.17400560358113
1.17885093834984
1.18360793414134
1.18827288769439
1.19284287372522
1.19731569867609
1.20168987101123
1.20596453488343
1.21013946115983
1.21421493959065
1.21819183625571
1.22207138100004
1.22585540028171
1.22954583659318
1.23314541673866
1.23665650994379
1.24008283438106
1.24342674658151
1.24669335122034
1.24988418225169
1.25300674476293
1.25606010111285
1.25905645911111
1.26198888253296
1.26487931896981
1.26770719655044
1.27051505516742
1.27325222480847
1.27600486809073
1.27865752993534
1.2813879435613
1.28394555520654
1.2866914137618
1.28911346360991
1.29185340785001
1.29444400203037
1.29734750719823
1.30029548359156
1.30346345254509
1.30670499112558
1.31002393693104
1.31332249798366
1.31647949736634
1.31929956100054
1.32162528408175
1.32323482437282
1.32400229501292
1.32372567871517
1.32244686854873
1.32018060191307
1.31680917754398
1.31198814857524
1.30559111488439
1.29651624154403
1.28427834274697
1.26545565021277
1.23836706427082
1.20029514082411
1.14830877796034
1.07878113367613
0.993819996638838
0.907829104062099
0.865452363548761
0.874296924310731
0.887011387611954
0.922567660228363
0.930363521969188
0.94915676360042
0.950128382612283
0.967279858733598
0.980246219221922
0.991857099011902
0.998158596182436
1.00143298995159
1.00366062955264
1.00520461226581
1.00656189391772
1.00769820202462
1.00869576546312
1.00957927795586
1.0104030360193
1.01115845969715
1.0118892801673
1.01258730750355
1.01328508915707
1.01397981825999
1.01467566786768
1.01537314091129
1.01606820755642
1.0167533824521
1.01741911151624
1.01805126122234
1.01865284951848
1.01922794325827
1.01974224186815
1.0202503982175
1.02061429564575
1.02106701265514
1.02105817826358
1.02141520203891
1.02161655672492
1.02202694092286
1.02251984014876
1.02323457649584
1.02414625769641
1.02530780114559
1.02671437691869
1.02838228640239
1.03030708529848
1.03248980813143
1.03492404899299
1.03760476232015
1.04052417827243
1.04367471451932
1.04704760381804
1.05063381582878
1.05442355639169
1.05840654497387
1.06257183108476
1.06690789241998
1.07140259358472
1.07604324916687
1.08081664929108
1.08570915936183
1.09070681476438
1.09579543020562
1.10096070522542
1.1061883419734
1.11146416423466
1.11677423513487
1.12210496874126
1.12744323523187
1.13277645588147
1.13809268726984
1.14338069319107
1.14863000338239
1.15383095961814
1.15897474799699
1.1640534195078
1.16905989786785
1.17398797742515
1.17883230993354
1.1835883850173
1.18825249952706
1.1928217276068
1.19729387446623
1.20166744686078
1.20594158668369
1.21011606234427
1.21419116059213
1.21816774473583
1.22204704106807
1.22583087350492
1.22952118040733
1.23312068704273
1.23663175748746
1.24005811068573
1.2434020957022
1.24666882280902
1.24985981306563
1.25298258702519
1.25603618182389
1.25903284127514
1.26196557593766
1.26485641367058
1.26768466548236
1.27049305031866
1.27323063272185
1.27598397826582
1.27863701443509
1.28136841842013
1.28392622132698
1.28667436865065
1.28909148215279
1.29184084566665
1.29444334816469
1.29736262695651
1.30032738126638
1.30351321065089
1.30676987915811
1.31010023972963
1.31340248312334
1.31655146412648
1.31935104887595
1.32164424225411
1.32321151288593
1.32392947613297
1.32360177900643
1.3222744823895
1.31995645173536
1.31652160879973
1.31162482823775
1.30512214314211
1.2959042896418
1.28344530520494
1.26433148443199
1.23693125062028
1.19856206090984
1.14639358947032
1.07708197672441
0.993151202449001
0.909046785865619
0.867438041694623
0.875472594583294
0.887516950152298
0.922742181588062
0.930508213562225
0.949264178992243
0.950264642688623
0.967309781056406
0.980162957279391
0.991716274075766
0.998048089079529
1.00135181195118
1.00360311730351
1.00516395097422
1.0065303217657
1.00767565856085
1.00868087723925
1.00957037508102
1.01039900379539
1.01115834378163
1.01189204680411
1.01259206100988
1.0132905969979
1.01398559356714
1.01468142876414
1.01537891323612
1.0160743143706
1.0167604069747
1.01742786000544
1.01806206367867
1.0186653888134
1.01924206702397
1.01975754174393
1.02026634426529
1.02063182640238
1.02108553331614
1.02107549893531
1.02143328439177
1.02163339478785
1.02204191401281
1.02253338488464
1.02324706785769
1.0241582627484
1.02531973626839
1.02672656282297
1.02839489649364
1.03032017720368
1.03250334736964
1.03493793458246
1.03761885216323
1.04053830468814
1.04368869863466
1.04706126305001
1.05064697038594
1.0544360324249
1.05841817727635
1.06258246446801
1.06691738310076
1.07141081006565
1.07605007153898
1.08082197193655
1.08571289172726
1.09070888168693
1.09579577082364
1.10095927342495
1.10618510710343
1.11145911093065
1.11676736304097
1.12209629200387
1.12743278180779
1.13276426666815
1.13807881507986
1.14336520160354
1.14861296548687
1.1538124567043
1.15895486819665
1.16403225644165
1.16903754931163
1.17396454403058
1.17880789400912
1.18356308941801
1.18822642661635
1.19279497838362
1.19726654772628
1.20163963862136
1.20591338950216
1.21008756512737
1.21416244793066
1.2181388972816
1.22201813456334
1.22580198015321
1.22949236688901
1.23309201782512
1.23660329038586
1.24002990409546
1.24337419875023
1.24664129073147
1.24983268576208
1.25295592124271
1.25601000553323
1.25900722080665
1.26194051919663
1.26483201215314
1.26766088714888
1.27047004614833
1.27320827848986
1.27596256050554
1.2786161808498
1.28134880191412
1.28390693382188
1.28665772189624
1.28906920591438
1.29182770787079
1.29444172651823
1.29737687516418
1.30035858939728
1.30356228128359
1.30683364948112
1.31017446623993
1.31347879804454
1.3166174798165
1.31939405990974
1.32165223110837
1.32317501056449
1.32384174023329
1.32346171523094
1.3220845785499
1.31971273769985
1.31621177928124
1.31123564245498
1.30462259283542
1.29525622557943
1.28257240295213
1.26317224483873
1.23547794352373
1.19685144950104
1.14458277659997
1.07563540470656
0.992949937405901
0.910931882386945
0.870043028214646
0.877016758389406
0.888177969813145
0.922947778092915
0.930699328245184
0.949406537349677
0.950440089498075
0.967361585098547
0.980080503465959
0.991573996223829
0.997942973819934
1.00127264326251
1.00354564343702
1.00512274862258
1.00649803660456
1.00765245968775
1.00866551331578
1.00956117951712
1.01039485259464
1.01115823743635
1.01189491581024
1.01259698193173
1.01329629064451
1.01399151043552
1.01468723446967
1.01538460378225
1.01608020168328
1.01676708381338
1.0174361604483
1.01807234193115
1.01867739213604
1.01925558365779
1.01977228997416
1.02028142550704
1.02064865525158
1.02110222088846
1.02108934765687
1.0214465014713
1.02164461753515
1.02205026425191
1.02253986533991
1.02325230170352
1.0241631667766
1.02532490568678
1.02673244237208
1.02840169382718
1.03032793703697
1.03251198495485
1.03494727916265
1.03762868183918
1.04054836866229
1.04369873590527
1.04707101185577
1.0506561760792
1.05444445097837
1.05842557834944
1.06258863285814
1.06692212007776
1.07141393443489
1.07605142178323
1.08082140594897
1.08571028895236
1.09070414370326
1.0957888204282
1.100950055235
1.10617358846871
1.11144528161457
1.11675123473956
1.12207789750101
1.12741217383535
1.13274151648869
1.13805401083242
1.14333844646713
1.14858437569354
1.1537821594833
1.15892299966829
1.16399895953847
1.16900297175285
1.17392883640284
1.17877120796175
1.18352557604252
1.18818823495786
1.19275625421272
1.19722743238679
1.20160026826855
1.20587389421984
1.2100480687347
1.21412306716756
1.21809974240717
1.22197930817439
1.22576357910323
1.22945447981417
1.23305472956039
1.23656667635465
1.23999403968458
1.2433391468716
1.24660712129794
1.24979944874837
1.25292368641576
1.25597880641737
1.25897713613296
1.26191155704392
1.26480427522256
1.2676343355831
1.27044484014773
1.2731842705934
1.27594004454706
1.27859475382051
1.28132911205943
1.28388795470863
1.28664175636635
1.28904797672623
1.29181529887944
1.29443998947315
1.29739033699495
1.30038801436459
1.30360809446797
1.3068920298915
1.31024050568527
1.31354335361072
1.31666756254657
1.3194170560714
1.32163653599612
1.32311181358772
1.32372520569127
1.3232916908518
1.3218637338618
1.31943636179883
1.31586677717367
1.31080760589823
1.30407916869353
1.29455816147223
1.28164485209337
1.26196217760729
1.2339901561078
1.1951436287515
1.14284948437207
1.07439668191772
0.99314099157032
0.913391243956823
0.87322622411954
0.878966402639453
0.889045862034256
0.923204021798389
0.930953124805753
0.949594909756285
0.950668984653273
0.967445663940384
0.980001498105561
0.991425301929851
0.997842660597191
1.0011959263017
1.00348854560665
1.00508118712988
1.00646510066249
1.0076286086251
1.00864966793605
1.00955168914581
1.01039059250374
1.01115816115663
1.011897913434
1.01260209643226
1.01330218670168
1.01399756328442
1.01469304282334
1.01539011887605
1.01608571072425
1.01677317806257
1.01744369643227
1.01808169680755
1.01868837598475
1.01926791507189
1.01978580633271
1.02029481123797
1.02066374269572
1.02111560155052
1.02109832787638
1.02145317655909
1.02164848656803
1.02205033851436
1.0225378130457
1.0232490707571
1.02416003747982
1.02532264463731
1.02673157740017
1.0284024184434
1.03033022499551
1.03251564428869
1.03495201247413
1.03763413398841
1.04055415487988
1.04370446561169
1.04707629961204
1.05066065110062
1.05444776094519
1.05842739311081
1.06258864595036
1.06692005050947
1.07140953212583
1.07604446607699
1.08081170162246
1.08569767632042
1.09068849685695
1.09577004633294
1.1009280946447
1.10614841656254
1.1114169072714
1.11671969949977
1.12204327398543
1.1273745637275
1.1327010481222
1.13801083645511
1.1432927392701
1.14853632666298
1.15373197419282
1.15887089504786
1.1639451607276
1.16894770907724
1.17387234254749
1.17871371535085
1.18346731451708
1.18812942968024
1.19269712396372
1.19716818800954
1.20154111166621
1.2058150172357
1.20998965296451
1.21406528299838
1.21804274991224
1.2219232557303
1.22570860603068
1.22940071335896
1.23300229078593
1.2365156730658
1.2399445787744
1.24329131830798
1.24656102331128
1.24975515305604
1.25288128951605
1.25593835846453
1.25893874389791
1.26187524276808
1.26477017110692
1.26760239735469
1.27041525510853
1.27315686115622
1.27591514321934
1.27857187136353
1.28130896413139
1.28386928183175
1.2866267193411
1.28902920505009
1.29180504944825
1.2944387268906
1.29740232529805
1.3004131611288
1.30364604208924
1.30693804754039
1.31028881150925
1.31358396028059
1.316687029234
1.31940323667346
1.32157866082383
1.3230021707096
1.32355934725695
1.32307096941252
1.32159141335989
1.31910702748807
1.31546641033383
1.31032030185773
1.30347083545622
1.29378784524219
1.28063820361323
1.26067356881681
1.23243550230796
1.19339838012038
1.14113897415697
1.07328473936545
0.993605071521551
0.916277682264028
0.876892153163566
0.881324141267268
0.890165414365716
0.923536842059276
0.931288142608002
0.949842208286928
0.950967251526496
0.967574953455726
0.979930927414834
0.991265641145538
0.997745932682034
1.00112202187569
1.00343217475627
1.00503947884231
1.00643159853383
1.00760411880781
1.00863334065303
1.00954190573554
1.01038623831731
1.01115814149219
1.01190107287223
1.01260743742551
1.01330830693809
1.01400374829183
1.01469880764182
1.01539535164335
1.0160906563596
1.01677841069938
1.01745008487367
1.01808963730859
1.01869773601255
1.0192783327491
1.01979722396878
1.02030545168938
1.02067577752421
1.02112386088493
1.02110084868925
1.02145148307294
1.02164318861096
1.02204054399656
1.02252594773224
1.02323647161092
1.02414833014589
1.02531272832612
1.02672399111662
1.02839726713092
1.03032733227475
1.03251463767332
1.03495239895515
1.03763536315239
1.04055565165717
1.04370565960569
1.04707663692022
1.05065960553157
1.05444483797024
1.05842213421764
1.06258063020279
1.06690890100245
1.07139491996465
1.07602609774181
1.08078932841123
1.08567110352232
1.09065757865839
1.09573468599866
1.10088824494965
1.10610407939652
1.11136813199911
1.11666658081215
1.12198594906876
1.12731320889928
1.13263587500919
1.13794208782195
1.14322068462141
1.14846125770105
1.15365420028043
1.15879073872449
1.1638629534093
1.16886378698583
1.17378704295513
1.17862737314583
1.18338025919694
1.18804198267875
1.19260959650946
1.1970808792083
1.20145430730182
1.20572898846048
1.20990465616419
1.21398155873318
1.21796052416363
1.22184273836104
1.22562999423031
1.22932418809757
1.23292802435219
1.23644382044687
1.23987529330034
1.24322473143291
1.24649727632578
1.24969435458108
1.25282358364653
1.25588383554493
1.25888755478346
1.2618274268308
1.26472590843571
1.26756165401005
1.27037828587026
1.27312346238283
1.27588574283079
1.27854588109871
1.28128723751606
1.28385029041213
1.28661271084857
1.28901328440542
1.29179837467092
1.29443797366863
1.29741130992817
1.30043039722637
1.30366998852345
1.30696288824835
1.31030776050684
1.31358617100101
1.31665875309824
1.31933309553199
1.32145705681884
1.32282285513925
1.32331967090415
1.32277425874248
1.32124191478775
1.31869874036246
1.31498430632377
1.30974664731142
1.30276932092289
1.29291500356412
1.27951874536337
1.25926744620172
1.23076756184989
1.19155800350829
1.13937581873989
1.0721976368802
0.994205531247276
0.919424256544064
0.880910780294698
0.884056963155588
0.89156558291599
0.923974964377201
0.931722067217023
0.950161339607807
0.951350512450159
0.967763861836494
0.979877098735497
0.991091333783521
0.997650811974708
1.00105117342449
1.00337688083745
1.00499786326376
1.00639763828414
1.0075790151044
1.008616536989
1.0095318355317
1.01038181035673
1.01115821226614
1.0119044358456
1.01261304644916
1.01331468028658
1.0140100653668
1.01470448045307
1.01540018317369
1.01609482722986
1.01678245709244
1.01745487212204
1.01809557430396
1.01870473823959
1.01928594757475
1.01980547767571
1.02031206865817
1.02068316467152
1.02112484772796
1.02109516844339
1.02143952842954
1.02162696272867
1.02201950808307
1.02250335781813
1.02321408732086
1.02412806167016
1.02529552853393
1.0267103051736
1.02838701120265
1.03032008325393
1.03250975817162
1.03494912654389
1.03763289023011
1.04055316144011
1.04370236071153
1.04707177521413
1.05065247662457
1.0544347907097
1.05840857499541
1.06256302509455
1.06688679080644
1.07136789928649
1.07599381459725
1.08075150799197
1.08562753843549
1.09060812820412
1.09567927566167
1.10082686525048
1.10603678370427
1.11129503343058
1.11658784852382
1.12190180387846
1.12722391840914
1.13254174832646
1.13784347000569
1.1431179509942
1.14835480811291
1.15354445348856
1.15867812693187
1.16374791710085
1.16874677010103
1.17366848848613
1.17850771915547
1.1832599353697
1.18792140728822
1.19248917402496
1.19696099817817
1.20133533908334
1.20561128583247
1.20978855331107
1.21386737016595
1.21784854632687
1.22173324800858
1.22552325261433
1.22922043702292
1.2328274951762
1.23634672415273
1.23978183873542
1.24313510196893
1.24641167109259
1.24961294101999
1.25274655531532
1.25581131933446
1.25881976171894
1.26176444952594
1.26466800101394
1.26750881819267
1.27033086175114
1.27308125523802
1.27584930393615
1.27851456412013
1.28126210255103
1.2838295231513
1.28659910676614
1.28899961511452
1.29179597743467
1.29443706975743
1.29741521155302
1.30043574061092
1.30367382553677
1.30695823858148
1.31028678844249
1.31353720458246
1.31656779883041
1.31918963595668
1.3212527715115
1.32255309155935
1.32298373862917
1.32237758461704
1.32078985950888
1.31818483480994
1.31439247646796
1.30905705791109
1.30194299055573
1.29190513997418
1.27824772937489
1.25769888733615
1.22893314363944
1.1895582946362
1.1374815783933
1.0710397363595
0.994824270660101
0.922684409191378
0.88514831290235
0.88710484706798
0.893254118429257
0.924545158525516
0.932268600126795
0.950562846990347
0.951831562949948
0.968026440220331
0.979851745955986
0.990900823043564
0.997554156423763
1.00098348049059
1.00332299557331
1.00495660125485
1.00636335191423
1.00755333479813
1.00859926882229
1.00952148950154
1.01037733496724
1.01115841555113
1.0119080540889
1.01261897560752
1.01332134506959
1.01401652046589
1.01471001272902
1.01540448441724
1.01609798704152
1.01678494744225
1.01745753334095
1.01809881953777
1.01870851828794
1.01928971066536
1.01980930558789
1.02031316019422
1.02068402690864
1.02111611772657
1.02107947219175
1.02141548408609
1.02159828428588
1.02198628899124
1.02246971684354
1.02318218320015
1.02409997092243
1.02527212589577
1.02669179862099
1.02837300023748
1.03030978778412
1.0325021887056
1.03494318584001
1.03762746886767
1.04054717467306
1.04369478598702
1.04706166164935
1.05063895644208
1.05441707996641
1.05838597623569
1.06253493351096
1.06685268892684
1.0713273436479
1.07594644703467
1.08069705965828
1.08556582313251
1.0905390406689
1.09560278943178
1.10074302947281
1.10594571910935
1.11119692780653
1.11648295163193
1.12179042183589
1.12710640769684
1.13241850951207
1.13771494130493
1.14298460180398
1.14821713259111
1.15340296434454
1.15853334945319
1.16360038355767
1.16859701455321
1.17351704208287
1.17835510590967
1.18310666852546
1.18776798614677
1.19233608147189
1.19680869850989
1.20118427675938
1.20546188409482
1.20964121430522
1.21372247389744
1.2177064525599
1.2215942946411
1.22538776040043
1.22908870546827
1.23269981237153
1.23622335619137
1.23966304915305
1.24302113555659
1.24630278150721
1.24950933689403
1.25264848944254
1.25571898699881
1.25873343902092
1.26168428984374
1.26459432773388
1.26744169776018
1.27027071866625
1.27302795369675
1.27580351667858
1.27847566567832
1.28123138282919
1.28380497473905
1.28658416940004
1.28898698046166
1.29179710242583
1.29443468554112
1.29741193845424
1.30042602412717
1.30365334413778
1.30691886594038
1.31021959905757
1.3134297761657
1.31640584803667
1.3189633596585
1.32095496213454
1.32218053678209
1.32253752801574
1.32186490232056
1.32021690380985
1.3175446784037
1.3136679764124
1.30822610195139
1.30096362014202
1.2907267189542
1.27678966314022
1.25592735313217
1.22688576042318
1.18734669818956
1.13539893120223
1.0697504961803
0.995390674067071
0.925960092774554
0.889494245146285
0.890394820280932
0.895217923505083
0.925267976364208
0.932935792145087
0.951053083224883
0.952418068807352
0.968374162919849
0.979869361625798
0.990697702633484
0.997449970166174
1.0009188366586
1.00327081714925
1.00491596852361
1.0063288965197
1.00752712961879
1.00858155547629
1.00951088392826
1.01037284514267
1.01115880264944
1.01191199081671
1.0126252895339
1.01332835138554
1.01402312830139
1.01471535888325
1.01540811948112
1.01609987834132
1.01678547147833
1.01745747877404
1.018098594823
1.01870809450925
1.01928843081248
1.01980726839136
1.02030702043511
1.02067622880471
1.02109503863433
1.02105199779319
1.02137777361669
1.02155610522628