/*--------------------------------*- C++ -*----------------------------------*\
| =========                 |                                                 |
| \\      /  F ield         | OpenFOAM: The Open Source CFD Toolbox           |
|  \\    /   O peration     | Version:  4.1                                   |
|   \\  /    A nd           | Web:      www.OpenFOAM.org                      |
|    \\/     M anipulation  |                                                 |
\*---------------------------------------------------------------------------*/
FoamFile
{
    version     2.0;
    format      ascii;
    class       surfaceScalarField;
    location    "30000";
    object      phi;
}
// * * * * * * * * * * * * * * * * * * * * * * * * * * * * * * * * * * * * * //

dimensions      [0 3 -1 0 0 0 0];

internalField   nonuniform List<scalar> 
41710
(
9.8321560739953e-06
9.24889161568625e-07
9.37600851054532e-06
4.56147563450182e-07
5.24916063752482e-06
4.1268478730212e-06
4.00922564003494e-07
4.84823807352088e-06
-2.70761840661785e-06
3.10854097062171e-06
-3.33375212707708e-06
6.26133720461161e-07
-2.60738828527351e-06
-7.26363841804418e-07
-1.96971834648374e-06
-6.37669938789493e-07
-1.59397656438494e-06
-3.75741782098022e-07
-1.40505787611436e-06
-1.88918688270886e-07
-1.29028850706858e-06
-1.14769369045501e-07
-1.21083190604378e-06
-7.94566010251431e-08
-1.16563220024276e-06
-4.51997058002829e-08
-1.14828532851749e-06
-1.73468717225214e-08
-1.15600204853747e-06
7.71672001659521e-09
-1.19806188259612e-06
4.20598340577131e-08
-1.2717705954362e-06
7.3708712840909e-08
-1.37503548904117e-06
1.03264893609567e-07
-1.49010153960395e-06
1.15066050565757e-07
-1.60538858190397e-06
1.15287042298856e-07
-1.71311267375101e-06
1.07724091847266e-07
-1.79968755749193e-06
8.65748837413753e-08
-1.8526636333375e-06
5.29760758464289e-08
-1.86571066692906e-06
1.30470335908614e-08
-1.84750268369981e-06
-1.82079832265693e-08
-1.81894244541971e-06
-2.85602382824653e-08
-1.77903986909102e-06
-3.99025763290675e-08
-1.74111309151078e-06
-3.79267775783521e-08
-1.72561108706108e-06
-1.55020044452996e-08
-1.76892177481043e-06
4.3310687750082e-08
-1.92011901958984e-06
1.51197244780541e-07
-2.3164668235172e-06
3.9634780392958e-07
-3.62717749693334e-06
1.31071067341704e-06
-5.12367032618758e-06
1.49649282924889e-06
-6.74646809423157e-06
1.62279776804142e-06
-8.43311311895053e-06
1.68664502472299e-06
-1.01527877702909e-05
1.71967465133883e-06
-1.18526298925535e-05
1.69984212225991e-06
-1.35049024226496e-05
1.65227253009498e-06
-1.50833042710306e-05
1.57840184838041e-06
-1.6575833742389e-05
1.49252947135059e-06
-1.79740927840387e-05
1.39825904165035e-06
-1.92762269261548e-05
1.30213414211231e-06
-2.04820787398436e-05
1.20585181369854e-06
-2.1593656375966e-05
1.11157763612451e-06
-2.26131592008359e-05
1.01950282486945e-06
-2.35430663878917e-05
9.29907187054003e-07
-2.43854745273191e-05
8.42408139430913e-07
-2.51422088031222e-05
7.5673427579801e-07
-2.58146918571239e-05
6.72483054000002e-07
-2.64040844828733e-05
5.89392625753426e-07
-2.69113343101019e-05
5.07249827229945e-07
-2.73373069732904e-05
4.25972663191757e-07
-2.76828683303072e-05
3.45561357019437e-07
-2.79489789887487e-05
2.66110658431123e-07
-2.81367650004099e-05
1.87786011660318e-07
-2.8247587660254e-05
1.10822659843453e-07
-2.82830811648465e-05
3.54935045887769e-08
-2.82451788722267e-05
-3.79022926193909e-08
-2.8136129676072e-05
-1.09049196155911e-07
-2.79584994907932e-05
-1.77630185280748e-07
-2.77151591118174e-05
-2.4334037897521e-07
-2.74092654416105e-05
-3.05893670205941e-07
-2.70442345907715e-05
-3.65030850838716e-07
-2.66237103037185e-05
-4.20524287050891e-07
-2.61515279501038e-05
-4.72182353614193e-07
-2.56316761306341e-05
-5.19851819476766e-07
-2.50682569916947e-05
-5.63419138940462e-07
-2.4465446474993e-05
-6.02810516702743e-07
-2.3827455769562e-05
-6.37990705427985e-07
-2.3158494362058e-05
-6.68961407504191e-07
-2.24627361222542e-05
-6.95758239803222e-07
-2.17442881928222e-05
-7.18447929424521e-07
-2.10071638124456e-05
-7.37124380373399e-07
-2.02552587835288e-05
-7.5190502892078e-07
-1.94923324205678e-05
-7.62926362961964e-07
-1.87219918741614e-05
-7.70340546401657e-07
-1.79476818470627e-05
-7.7431002709957e-07
-1.71726761008779e-05
-7.75005746186862e-07
-1.64000767542303e-05
-7.72599346645401e-07
-1.56328105158332e-05
-7.67266238397111e-07
-1.48736402084704e-05
-7.59170307366943e-07
-1.41251596378861e-05
-7.48480570584717e-07
-1.33898256602215e-05
-7.35333977657865e-07
-1.26699366192768e-05
-7.19889040934619e-07
-1.19677077399323e-05
-7.02228879346261e-07
-1.12851962265576e-05
-6.82511513374119e-07
-1.06244778194541e-05
-6.60718407110102e-07
-9.98742902926936e-06
-6.37048790184009e-07
-9.37614141455687e-06
-6.112876147073e-07
-8.79235557932061e-06
-5.83785835241197e-07
-8.23842064842854e-06
-5.53934930887552e-07
-7.71592058329246e-06
-5.22500065141918e-07
-7.22785849257903e-06
-4.88062090714668e-07
-6.77547003803521e-06
-4.52388454547042e-07
-6.36308567426993e-06
-4.12384363768735e-07
-5.99098111064931e-06
-3.7210456362365e-07
-5.66604402020656e-06
-3.24937090436926e-07
-5.38598668155189e-06
-2.80057338654131e-07
-5.16263701891488e-06
-2.2334966263811e-07
-4.98722960438998e-06
-1.75407414524208e-07
-4.88151342566013e-06
-1.05716178730918e-07
-4.82123793544083e-06
-6.02754902142299e-08
-4.84895053468525e-06
2.77125992409845e-08
-4.90251195978025e-06
5.356142509932e-08
-5.06534467388967e-06
1.62832714103635e-07
-5.16320433969186e-06
9.78596658079055e-08
-5.50538766181648e-06
3.42183322127235e-07
-5.66377266505436e-06
1.58385003238234e-07
-5.79177114581043e-06
1.27998480755592e-07
-5.67815273847344e-06
-1.1361840732971e-07
-5.33838526905276e-06
-3.39767469418748e-07
-4.72836141092318e-06
-6.10023858130198e-07
-3.87173044224534e-06
-8.56630968677783e-07
-2.78599992956509e-06
-1.0857305126796e-06
-1.46190177462937e-06
-1.3240981549348e-06
7.07692618184871e-08
-1.53267103644369e-06
1.75264881685234e-06
-1.68187955503278e-06
3.53606422639913e-06
-1.78341540954988e-06
5.36027505343707e-06
-1.82421082703653e-06
7.17236557061576e-06
-1.81209051718132e-06
8.83451831620146e-06
-1.66215274558522e-06
1.02727983262169e-05
-1.43828001001309e-06
1.15481477383181e-05
-1.27534941210573e-06
1.27346358676925e-05
-1.18648812937332e-06
1.38848028007369e-05
-1.15016693304733e-06
1.51358415227794e-05
-1.25103872204405e-06
1.66327894677077e-05
-1.49694794493149e-06
1.88706319610392e-05
-2.23784249333133e-06
2.1917154961377e-05
-3.04652300033723e-06
2.58871652495987e-05
-3.9700102882231e-06
3.10953320187541e-05
-5.20816676915655e-06
3.79532441556617e-05
-6.85791213691079e-06
4.60993091870127e-05
-8.1460650313496e-06
5.19137112143107e-05
-5.81440202729989e-06
4.78613329266388e-05
4.05237828767434e-06
3.53417043448372e-05
1.25196285818031e-05
2.28391009431712e-05
1.25026034016644e-05
1.34458378614732e-05
9.39326308169912e-06
2.68879262590981e-06
3.28143566555005e-05
4.1754573857075e-06
3.04102954016349e-05
2.86020881731284e-06
1.86754272502469e-05
1.58617160244079e-05
3.67389155135826e-06
1.98497737724088e-05
-6.62647939903025e-06
1.34089119210105e-05
-9.53411812222891e-06
3.5337724436606e-06
-7.86005708935024e-06
-2.40042487468229e-06
-6.04203000911407e-06
-2.45569701902209e-06
-4.91785989151107e-06
-1.49991189969884e-06
-4.33340909986316e-06
-7.73369479921115e-07
-3.99031170699848e-06
-4.57866761911787e-07
-3.75612045815813e-06
-3.13647849859774e-07
-3.62502865503476e-06
-1.76291508923233e-07
-3.57708099481996e-06
-6.52945319371895e-08
-3.60813679820733e-06
3.87725234062337e-08
-3.74061015338465e-06
1.74533189242176e-07
-3.97184857680237e-06
3.04947136267948e-07
-4.29146852911023e-06
4.2288484590804e-07
-4.65236969681259e-06
4.75967218260802e-07
-5.01868065184216e-06
4.81597997320829e-07
-5.36716085455714e-06
4.56204294553326e-07
-5.6587000726254e-06
3.78114101808979e-07
-5.85710331705197e-06
2.5137932027208e-07
-5.9439202766512e-06
9.98639931937148e-08
-5.94386336171727e-06
-1.82648981681418e-08
-5.91446363076418e-06
-5.79599692360283e-08
-5.85851023083002e-06
-9.58559762699784e-08
-5.82388441877599e-06
-7.2552589626329e-08
-5.86204008153327e-06
2.26536583148706e-08
-6.126592141518e-06
3.07862747735734e-07
-6.72014636647414e-06
7.44751469742117e-07
-8.26230136483906e-06
1.93850280229599e-06
-1.22276831541051e-05
5.27609246268689e-06
-1.68751524506106e-05
6.14396212575575e-06
-2.17906623358393e-05
6.53830765327722e-06
-2.68863116464989e-05
6.78229433537982e-06
-3.20064956830095e-05
6.83985868785132e-06
-3.70356390400006e-05
6.72898547925372e-06
-4.18788449541583e-05
6.49547844424951e-06
-4.64771257429607e-05
6.17668263716623e-06
-5.07954721922737e-05
5.81087592066988e-06
-5.48183204035983e-05
5.4211072529671e-06
-5.8542568288882e-05
5.02638202739078e-06
-6.19722602487868e-05
4.63554377360611e-06
-6.51151594322664e-05
4.25447681961296e-06
-6.79800382810385e-05
3.88438167364497e-06
-7.05754879879331e-05
3.52535689395254e-06
-7.29090677779081e-05
3.17598792940567e-06
-7.49871920398084e-05
2.83485853770051e-06
-7.68151292975485e-05
2.5004203117521e-06
-7.83972725069278e-05
2.17153583513467e-06
-7.9737407201138e-05
1.84738452144114e-06
-8.08390391572495e-05
1.52760461930064e-06
-8.17056692929456e-05
1.21219149271699e-06
-8.23410452020795e-05
9.01486567564159e-07
-8.27493681555343e-05
5.96108965118057e-07
-8.29354642765586e-05
2.96918780866007e-07
-8.29048795473493e-05
4.9087753619098e-09
-8.26639468184881e-05
-2.78835021476053e-07
-8.22198442982808e-05
-5.53151716355807e-07
-8.15805847456007e-05
-8.16889737956097e-07
-8.07549725065629e-05
-1.06895261802324e-06
-7.97525484528435e-05
-1.3083177239211e-06
-7.85835131795364e-05
-1.53406612414705e-06
-7.72586379993751e-05
-1.74539946720918e-06
-7.57891654387609e-05
-1.9416549142235e-06
-7.41867041287178e-05
-2.12231312951407e-06
-7.24631213037577e-05
-2.28700196389989e-06
-7.06304360649271e-05
-2.43549575553311e-06
-6.8700716473177e-05
-2.56771029717388e-06
-6.66859818971604e-05
-2.68369598351347e-06
-6.45981136671992e-05
-2.78362646975937e-06
-6.24487740524277e-05
-2.86778754418826e-06
-6.02493357318471e-05
-2.93656270095334e-06
-5.80108216984251e-05
-2.99041906232896e-06
-5.57438566397007e-05
-3.02989142168607e-06
-5.34586286266513e-05
-3.05556855945638e-06
-5.11648633036876e-05
-3.06807535006369e-06
-4.88718064597927e-05
-3.06806259006791e-06
-4.65882213516594e-05
-3.05618445476951e-06
-4.43223886511973e-05
-3.03309893885274e-06
-4.20821289338879e-05
-2.99943002466881e-06
-3.98748123845619e-05
-2.95579711991704e-06
-3.77074149417094e-05
-2.90273142053021e-06
-3.55865204022937e-05
-2.84078358035311e-06
-3.35184352277471e-05
-2.77031405388495e-06
-3.15091423880058e-05
-2.69180435312191e-06
-2.95645395574465e-05
-2.6053212376648e-06
-2.76902460909148e-05
-2.51134225672035e-06
-2.58921152364685e-05
-2.40941846915427e-06
-2.41756736011507e-05
-2.30022747055551e-06
-2.25472343494492e-05
-2.18237418258513e-06
-2.10124880032507e-05
-2.05724641133642e-06
-1.95789182391414e-05
-1.92163185483542e-06
-1.82525168261869e-05
-1.77878986749689e-06
-1.70429288596772e-05
-1.62197233027062e-06
-1.59561793245738e-05
-1.45885409873024e-06
-1.50055339787622e-05
-1.27558243626118e-06
-1.41956522156283e-05
-1.08993910179085e-06
-1.35457397438166e-05
-8.73262134442247e-07
-1.30547179995117e-05
-6.66429158819743e-07
-1.27522561888209e-05
-4.08177989420521e-07
-1.26200701231504e-05
-1.924615558906e-07
-1.27088172812916e-05
1.16459757384221e-07
-1.2948803006428e-05
2.9354715022057e-07
-1.34311367000118e-05
6.45166407677119e-07
-1.39097720752881e-05
5.76495041079261e-07
-1.49284714002095e-05
1.36088264704085e-06
-1.54594184136649e-05
6.89332016704194e-07
-1.56980585692858e-05
3.66638636383802e-07
-1.52609219060963e-05
-5.50755070523494e-07
-1.41051910326672e-05
-1.49549834285077e-06
-1.21872329089085e-05
-2.52798198188421e-06
-9.55459704260718e-06
-3.48926683497191e-06
-6.27446692433435e-06
-4.36586063093931e-06
-2.33024110696229e-06
-5.26832397230967e-06
2.16939596247805e-06
-6.03230810588938e-06
7.06069821745038e-06
-6.57318180999341e-06
1.22024241383961e-05
-6.9251413305053e-06
1.74404302022098e-05
-7.06221689085677e-06
2.26119598881715e-05
-6.98362020314644e-06
2.73649465613857e-05
-6.41513941880106e-06
3.15051579810406e-05
-5.57849142966485e-06
3.51908635121392e-05
-4.96105494319634e-06
3.86124865238556e-05
-4.60811114109595e-06
4.19523985686957e-05
-4.49007897789326e-06
4.55453207291616e-05
-4.84396088251502e-06
4.98862157513578e-05
-5.83784296712653e-06
5.61887503327116e-05
-8.54037707468131e-06
6.47724996924116e-05
-1.16302723600402e-05
7.59505237393508e-05
-1.51480343351568e-05
9.0563880005825e-05
-1.98215230356335e-05
0.000109619866307907
-2.59138984389907e-05
0.000132151873328931
-3.06780720523783e-05
0.000148918592262362
-2.25811209607279e-05
0.000140903860692296
1.20671098577396e-05
0.000109144178499872
4.42793107742285e-05
7.36576653372869e-05
4.79891165642515e-05
4.62414771117775e-05
3.68094513072069e-05
1.28653448580453e-05
6.00502456531861e-05
1.07962073227821e-05
5.49170587379807e-05
7.99339573251495e-06
3.56590079171297e-05
3.51197668452631e-05
9.83411196633143e-06
4.56746697232049e-05
-9.03822188224205e-06
3.2281245769581e-05
-1.54168867737892e-05
9.91243733520319e-06
-1.33301884865931e-05
-4.48712316187973e-06
-1.04137081546492e-05
-5.37217735096345e-06
-8.51517005731955e-06
-3.3984499970262e-06
-7.50317882911286e-06
-1.78536070812472e-06
-6.91824049309466e-06
-1.04280509793218e-06
-6.52317035523632e-06
-7.08717987718486e-07
-6.30281691494543e-06
-3.96644949215842e-07
-6.22412124562905e-06
-1.43990201252506e-07
-6.28296046968595e-06
9.76117474767201e-08
-6.51310744662741e-06
4.04680166187384e-07
-6.91430044512176e-06
7.06140134757803e-07
-7.46669642773413e-06
9.7528082851972e-07
-8.09617645238242e-06
1.10544724290833e-06
-8.74164312511107e-06
1.12706467005528e-06
-9.36381696053697e-06
1.07837812998236e-06
-9.89876209158614e-06
9.13059232853165e-07
-1.02870756324848e-05
6.39692861172561e-07
-1.04988508973254e-05
3.11639258035936e-07
-1.05748500826108e-05
5.77342871185277e-08
-1.06082707881076e-05
-2.45392637295155e-08
-1.06117076127947e-05
-9.24191515817739e-08
-1.06717570510977e-05
-1.25031513321316e-08
-1.08770258904549e-05
2.27922497665154e-07
-1.15130996305692e-05
9.4393648784996e-07
-1.27651232279158e-05
1.99677506707823e-06
-1.58005768314656e-05
4.9739564058303e-06
-2.26165734179016e-05
1.20920890491193e-05
-3.06288395781719e-05
1.41562282860237e-05
-3.89916816073432e-05
1.49011496824368e-05
-4.75996304021623e-05
1.53902431302025e-05
-5.61605776639973e-05
1.54008059496845e-05
-6.45090319129366e-05
1.5077439728193e-05
-7.24881731934905e-05
1.44746197248006e-05
-8.00171991673662e-05
1.37057086110503e-05
-8.70450689614411e-05
1.28387457147518e-05
-9.35562460603744e-05
1.19322843519052e-05
-9.95511442581004e-05
1.10212802251234e-05
-0.000105042036231207
1.01264357467164e-05
-0.00011004517130599
9.25761189439724e-06
-0.000114578108007968
8.41731837561828e-06
-0.000118657198267516
7.60444715349614e-06
-0.000122296890995968
6.81568065786061e-06
-0.000125509421454287
6.04738899602436e-06
-0.000128305072892365
5.29607174981744e-06
-0.000130692585923233
4.55904886599871e-06
-0.000132679683138737
3.83448173694333e-06
-0.000134273584061247
3.12150554180826e-06
-0.000135481474161604
2.42008159308541e-06
-0.000136310901253755
1.73091365971056e-06
-0.000136770103863376
1.05531157472322e-06
-0.000136868255023684
3.95069941163531e-07
-0.000136615579563277
-2.47766685047733e-07
-0.000136023478317264
-8.70936267487052e-07
-0.000135104628617322
-1.47200141629001e-06
-0.000133872934250565
-2.04858410472644e-06
-0.000132343455641463
-2.59843122711847e-06
-0.000130532317945234
-3.11945542014884e-06
-0.000128456587967608
-3.60979610176448e-06
-0.000126134133485521
-4.06785394930389e-06
-0.000123583468409619
-4.49231999013326e-06
-0.0001208235908085
-4.88219073063472e-06
-0.000117873818794264
-5.23677397814451e-06
-0.000114753628893632
-5.55568565617962e-06
-0.000111482501237773
-5.83883795304368e-06
-0.000108079773878103
-6.086423343181e-06
-0.000104564510209824
-6.29889013804192e-06
-0.00010095537985156
-6.47691790244148e-06
-9.72705556694933e-05
-6.62138688302413e-06
-9.35276271475487e-05
-6.7333475842633e-06
-8.97435309999286e-05
-6.81398756929428e-06
-8.59344981492246e-05
-6.8646014101666e-06
-8.21160186759402e-05
-6.88655482334716e-06
-7.83028214183536e-05
-6.88125984765906e-06
-7.45088726816354e-05
-6.85013319149311e-06
-7.07473849101973e-05
-6.7945867102875e-06
-6.70308494608888e-05
-6.71596547397698e-06
-6.33710679907413e-05
-6.61557859005883e-06
-5.97792243222845e-05
-6.49457508895925e-06
-5.62659261391966e-05
-6.35408176345134e-06
-5.28413326439503e-05
-6.19490754912912e-06
-4.95151806145576e-05
-6.01795638252315e-06
-4.62970111548297e-05
-5.82349069738744e-06
-4.31961186233536e-05
-5.61223478819064e-06
-4.02219710203717e-05
-5.38356607213924e-06
-3.73839557512789e-05
-5.13824273964154e-06
-3.46921744406356e-05
-4.87415549323543e-06
-3.21567373553581e-05
-4.59268349661894e-06
-2.97892750066895e-05
-4.28909420349126e-06
-2.76013053752768e-05
-3.96675949891311e-06
-2.56070207109483e-05
-3.61625699458273e-06
-2.3819906474008e-05
-3.24596833564042e-06
-2.22578028519904e-05
-2.83768605827175e-06
-2.09360203650253e-05
-2.41172158874591e-06
-1.98769786373547e-05
-1.93230386212427e-06
-1.90952541782449e-05
-1.44815361792521e-06
-1.86189605953136e-05
-8.84471572345875e-07
-1.84527298080151e-05
-3.58692343183369e-07
-1.86340878640941e-05
2.9781781347006e-07
-1.91224868398102e-05
7.81946125948207e-07
-1.99721695016544e-05
1.49484906951042e-06
-2.09642286644856e-05
1.56855420389992e-06
-2.26897348373658e-05
3.08638881993761e-06
-2.35892193588716e-05
1.588816538218e-06
-2.38232507136246e-05
6.00669991137103e-07
-2.2948474022521e-05
-1.42553176161912e-06
-2.08594351877608e-05
-3.58453717761507e-06
-1.75487425450565e-05
-5.83867462458222e-06
-1.3085874168572e-05
-7.95213521145847e-06
-7.5860717244862e-06
-9.86566307501884e-06
-1.02896062141527e-06
-1.18254350753867e-05
6.39289134595467e-06
-1.34541600732547e-05
1.44197011147651e-05
-1.45999915788115e-05
2.28219425129873e-05
-1.53273827287192e-05
3.13637752437471e-05
-1.56040496216276e-05
3.9771956630329e-05
-1.53918015897188e-05
4.7512179389535e-05
-1.41553621780141e-05
5.42909245866417e-05
-1.2357236626777e-05
6.03497540010074e-05
-1.10198843575574e-05
6.59825038888796e-05
-1.02408610289693e-05
7.15079033387093e-05
-1.00154784277239e-05
7.74370173792988e-05
-1.07730749230952e-05
8.4632150599498e-05
-1.30329761873182e-05
9.48950811846153e-05
-1.88033076597949e-05
0.000108815296874839
-2.55504880502663e-05
0.000126864849037807
-3.31975864981282e-05
0.000150283223323669
-4.32398973214917e-05
0.000180445276838246
-5.60759519535688e-05
0.000215753582879934
-6.59863780940604e-05
0.000242732165148469
-4.95597032292623e-05
0.000233839808083039
2.09594669231729e-05
0.000187703305917946
9.041581293932e-05
0.000131482742402641
0.000104209680079556
8.61481800938603e-05
8.21440136159862e-05
3.23425293616484e-05
9.19892313352971e-05
2.21386456302082e-05
8.34564460691471e-05
1.65261809986668e-05
5.65778352505296e-05
6.19983776638795e-05
1.93681077626791e-05
8.28843972110533e-05
-9.56489514499155e-06
6.12142486772499e-05
-2.07584590706921e-05
2.11060012609024e-05
-1.89318367975542e-05
-6.31374543501681e-06
-1.50636911906686e-05
-9.24032295785335e-06
-1.23814152616991e-05
-6.08072592599411e-06
-1.09167869776339e-05
-3.24998899218435e-06
-1.00778865455983e-05
-1.88170552997112e-06
-9.51877090320857e-06
-1.26783363011241e-06
-9.20798871957061e-06
-7.07427132857905e-07
-9.10086915581825e-06
-2.51109765009037e-07
-9.19341703094121e-06
1.90159622597374e-07
-9.530727451526e-06
7.41990586768648e-07
-1.01155489396327e-05
1.29096162286218e-06
-1.09191965094848e-05
1.77892839836877e-06
-1.18417906824926e-05
2.02804141592447e-06
-1.27971964136049e-05
2.08247040116721e-06
-1.37296327341305e-05
2.01081445050707e-06
-1.45513619020877e-05
1.7347884008024e-06
-1.5180727303724e-05
1.26905826280532e-06
-1.55773726822469e-05
7.08284636558825e-07
-1.57978430778391e-05
2.7820468271097e-07
-1.59705857423871e-05
1.48203400804733e-07
-1.61241991400685e-05
6.1194246094171e-08
-1.63855779436318e-05
2.48875652225684e-07
-1.68957174050282e-05
7.3806195907582e-07
-1.80701229101629e-05
2.11834199298702e-06
-2.02448486383891e-05
4.17150079532852e-06
-2.51050406127521e-05
9.83414838020476e-06
-3.50072271441949e-05
2.19942755805525e-05
-4.65649809615727e-05
2.57139821034e-05
-5.85153264877679e-05
2.68514952086286e-05
-7.06949568049029e-05
2.75698734473289e-05
-8.26942515928712e-05
2.74001007376649e-05
-9.42977043771162e-05
2.66808925124276e-05
-0.000105303216973194
2.54801323208783e-05
-0.000115616136179535
2.40186278174026e-05
-0.000125180536227295
2.24031457625037e-05
-0.000133987475923333
2.0739224047945e-05
-0.00014204708106161
1.90808853634026e-05
-0.000149383716176851
1.74630708619545e-05
-0.000156025318436545
1.58992141540869e-05
-0.000162000404399987
1.43924043390639e-05
-0.000167334910386329
1.29389531398376e-05
-0.000172051621546762
1.15323918182825e-05
-0.000176169924512425
1.01656919616635e-05
-0.00017970633731014
8.83248454753003e-06
-0.000182675140358419
7.5278519142703e-06
-0.000185089147979766
6.24848935828852e-06
-0.00018696042297495
4.99278053699153e-06
-0.00018830092388943
3.76058250757518e-06
-0.000189123040205228
2.55302997552229e-06
-0.000189440019884673
1.37229125416651e-06
-0.000189266252337361
2.21302393868793e-07
-0.000188617376479139
-8.96642543279251e-07
-0.000187510498351316
-1.97781439531546e-06
-0.000185964300478578
-3.01819928903435e-06
-0.000183998945085611
-4.01393949769475e-06
-0.000181635979204855
-4.96139710788032e-06
-0.000178898208391765
-5.85722623323502e-06
-0.000175809532909624
-6.69847158391094e-06
-0.000172394763270844
-7.4826235880821e-06
-0.000168679420155211
-8.20766310575552e-06
-0.000164689527337553
-8.87208354829444e-06
-0.000160451403902023
-9.47489741368473e-06
-0.000155991461370748
-1.00156281874553e-05
-0.000151336010900094
-1.04942884237111e-05
-0.000146511083374689
-1.09113508686046e-05
-0.000141542266924332
-1.126770658838e-05
-0.000136454562307336
-1.15646225194396e-05
-0.000131272259180352
-1.18036900100031e-05
-0.000126018833412219
-1.19867733524069e-05
-0.000120716866344186
-1.2115954637333e-05
-0.000115387984968622
-1.21934827857262e-05
-0.000110052824694242
-1.22217150977133e-05
-0.000104731011052582
-1.22030734893193e-05
-9.9441164926652e-05
-1.2139979317419e-05
-9.42009218710477e-05
-1.2034829765896e-05
-8.90269795989201e-05
-1.18899077461048e-05
-8.39351488108511e-05
-1.17074093781296e-05
-7.89404471735899e-05
-1.14892767262282e-05
-7.40571712888286e-05
-1.1237357648205e-05
-6.92990513446833e-05
-1.09530274932743e-05
-6.4679325612246e-05
-1.06376821149624e-05
-6.02109898681946e-05
-1.02918264414285e-05
-5.5906833533856e-05
-9.91639112252474e-06
-5.17798483499429e-05
-9.51055125605646e-06
-4.78431584926116e-05
-9.07493259696162e-06
-4.41106784516358e-05
-8.60663553421026e-06
-4.05968448262475e-05
-8.10651712201433e-06
-3.73176213043604e-05
-7.56831772536329e-06
-3.42899443631677e-05
-6.9944364401012e-06
-3.15330167076575e-05
-6.37318465009266e-06
-2.90675733463147e-05
-5.7114116970135e-06
-2.69170250776885e-05
-4.98823432689258e-06
-2.51068293786929e-05
-4.22191728774345e-06
-2.36646889800325e-05
-3.37444426078766e-06
-2.26196463919321e-05
-2.49319620603636e-06
-2.20024177915299e-05
-1.50170017275457e-06
-2.1837765834441e-05
-5.23344300261649e-07
-2.21581738680164e-05
6.18225847032459e-07
-2.29473494063404e-05
1.57112166426632e-06
-2.42394330333633e-05
2.78693269653402e-06
-2.58499936818521e-05
3.1791148523972e-06
-2.83343650884046e-05
5.57076022647287e-06
-2.95567489037156e-05
2.8112003535385e-06
-2.96663817532925e-05
7.1030284071467e-07
-2.82099396078343e-05
-2.88197390707029e-06
-2.50665628483706e-05
-6.72791393708608e-06
-2.02773446349926e-05
-1.06278928379765e-05
-1.39471885387656e-05
-1.42822913076888e-05
-6.23263157689167e-06
-1.75802200369e-05
2.88416596512358e-06
-2.09422326174091e-05
1.31275555469077e-05
-2.36975496550282e-05
2.41499881838214e-05
-2.5622424215724e-05
3.56465325642902e-05
-2.68239271091797e-05
4.7309773100097e-05
-2.72672901574113e-05
5.87673266624161e-05
-2.6849355152046e-05
6.93326381395551e-05
-2.47206736551521e-05
7.86351087754376e-05
-2.16597072626614e-05
8.69822217246319e-05
-1.93669973067664e-05
9.47606501378525e-05
-1.80192894421904e-05
0.000102412522682398
-1.76673509722637e-05
0.000110620976339399
-1.89815285800981e-05
0.00012058174189784
-2.29937417457716e-05
0.000134597322579084
-3.28188883410393e-05
0.00015350362682608
-4.44567922972563e-05
0.000177911591618691
-5.76055512907306e-05
0.000209327527778041
-7.46558334808348e-05
0.000249316621856973
-9.60650460325004e-05
0.000295696918320708
-0.000112366674557791
0.000332200200723045
-8.6062985631601e-05
0.000325291293605026
2.78683740411955e-05
0.000269791401831207
0.000145915704713139
0.000196172510059815
0.000177828571850949
0.000133443259160512
0.000144873264515286
6.24541188794393e-05
0.00012919489492681
3.95405014041991e-05
0.00011649673511276
2.92243408127185e-05
8.18812209168603e-05
9.66138918597786e-05
3.27659914124118e-05
0.000131999626715504
-7.78013246917315e-06
0.00010176037255884
-2.53227378886569e-05
3.86486066803921e-05
-2.45794015433266e-05
-7.0570817803428e-06
-1.99725460402509e-05
-1.3847178460925e-05
-1.65168718441268e-05
-9.53640012212403e-06
-1.45792948333183e-05
-5.18756600298734e-06
-1.34761351213976e-05
-2.98486524189655e-06
-1.27516793133174e-05
-1.9922894381914e-06
-1.23510749839189e-05
-1.10803146226544e-06
-1.22193458227003e-05
-3.82838926230034e-07
-1.23529517654344e-05
3.2376556533091e-07
-1.28083234391702e-05
1.1973622605107e-06
-1.35918633550836e-05
2.07450153877764e-06
-1.46667332095263e-05
2.85379825280919e-06
-1.59087802973333e-05
3.27008850373253e-06
-1.72074082491049e-05
3.38109835293119e-06
-1.84901890841109e-05
3.29359528551882e-06
-1.96469276942142e-05
2.89152701091129e-06
-2.05751356545707e-05
2.19726622316829e-06
-2.12254864259952e-05
1.35863540798777e-06
-2.16703712421107e-05
7.23089498817564e-07
-2.20730619216611e-05
5.50894080348842e-07
-2.24842739800973e-05
4.72406304512857e-07
-2.30734003746733e-05
8.38002046804051e-07
-2.40489431485822e-05
1.71360473298053e-06
-2.59571502043578e-05
4.02654904878608e-06
-2.93473360433458e-05
7.56168663433238e-06
-3.63745098157422e-05
1.68613221526079e-05
-4.95910257930589e-05
3.52107915578701e-05
-6.48491220359182e-05
4.09720783462464e-05
-8.04833668322847e-05
4.24857400049985e-05
-9.62392693657186e-05
4.33257759807712e-05
-0.000111610702206272
4.27715335782173e-05
-0.000126336968811928
4.14071591180864e-05
-0.00014018940930262
3.93325728115999e-05
-0.000153070067169659
3.68992856844371e-05
-0.000164930221311482
3.42632999043136e-05
-0.000175775013174944
3.15840159114181e-05
-0.000185630717558713
2.89365897471686e-05
-0.000194537885610125
2.63702389133623e-05
-0.000202539363402725
2.39006919466887e-05
-0.000209676846375529
2.15298873118486e-05
-0.000215987682752429
1.92497895167294e-05
-0.000221504474373046
1.70491834388935e-05
-0.000226255119409118
1.49163369977395e-05
-0.000230263634205478
1.28409993438691e-05
-0.000233551070326321
1.08152880351012e-05
-0.000236136524612654
8.83394364461361e-06
-0.000238038056021913
6.89431194624702e-06
-0.000239273493739599
4.99602022527784e-06
-0.000239861101963706
3.14063819962538e-06
-0.000239820089250368
1.33127854082923e-06
-0.000239170854396939
-4.27932459561274e-07
-0.000237935137389989
-2.13235955023609e-06
-0.000236136337163518
-3.77661462179168e-06
-0.00023379954522977
-5.35499122277116e-06
-0.000230951437400803
-6.86204732664835e-06
-0.000227620152674793
-8.29268183387081e-06
-0.000223835137261008
-9.64224164701531e-06
-0.000219626947784568
-1.09066610603469e-05
-0.000215027033082991
-1.20825382896619e-05
-0.000210067500995506
-1.31671951932459e-05
-0.000204780879819223
-1.4158704724586e-05
-0.000199199881463297
-1.50558957696077e-05
-0.000193357172454627
-1.58583371961245e-05
-0.000187285158325504
-1.65663025528486e-05
-0.00018101578436928
-1.71807248248366e-05
-0.000174580357476239
-1.77031334814309e-05
-0.00016800938936015
-1.81355906355239e-05
-0.000161332464326593
-1.84806150435711e-05
-0.000154578131485808
-1.8741106193194e-05
-0.000147773822354846
-1.89202637683045e-05
-0.000140945792449532
-1.90215126910351e-05
-0.000134119088904675
-1.90484186425603e-05
-0.00012731753964055
-1.9004622753463e-05
-0.000120563769807914
-1.88937491500456e-05
-0.000113879234216828
-1.87193653569739e-05
-0.000107284282725846
-1.8484859237079e-05
-0.000100798229718668
-1.81934623853169e-05
-9.44394735934903e-05
-1.7848032851408e-05
-8.82255935139098e-05
-1.74512377277837e-05
-8.21735382536792e-05
-1.70050827535074e-05
-7.62997347887015e-05
-1.65114855799517e-05
-7.062037894477e-05
-1.59711822853821e-05
-6.5151525848907e-05
-1.53852442183948e-05
-5.99095330203474e-05
-1.47525440845921e-05
-5.49111012234276e-05
-1.4073364393883e-05
-5.01739048761924e-05
-1.33438318814396e-05
-4.57165972282201e-05
-1.25638247699986e-05
-4.15595588594072e-05
-1.17253560941911e-05
-3.7725056206447e-05
-1.08289390930724e-05
-3.42376152191919e-05
-9.86062563733943e-06
-3.11250971864882e-05
-8.82392972972611e-06
-2.8417246059011e-05
-7.69608545437481e-06
-2.6149390299676e-05
-6.48977304708326e-06
-2.43562035041657e-05
-5.16763105631236e-06
-2.30805463355877e-05
-3.76885337461226e-06
-2.23592116307366e-05
-2.22303487761173e-06
-2.22355524783342e-05
-6.47003452671466e-07
-2.27437417580541e-05
1.12641512675515e-06
-2.38898427217071e-05
2.71722262792738e-06
-2.57017805145977e-05
4.59887048943623e-06
-2.80339216320358e-05
5.51125596983398e-06
-3.13211680425207e-05
8.85800663697648e-06
-3.28009585344037e-05
4.29099084540952e-06
-3.26457444385323e-05
5.55088744843622e-07
-3.04521758123836e-05
-5.07554253323144e-06
-2.61349932950325e-05
-1.10450964544293e-05
-1.97996270678515e-05
-1.69632590651433e-05
-1.15977401030672e-05
-2.24841782724706e-05
-1.71957248448127e-06
-2.7458387655485e-05
9.84612474899533e-06
-3.25079298508797e-05
2.27467653119071e-05