/*--------------------------------*- C++ -*----------------------------------*\
| =========                 |                                                 |
| \\      /  F ield         | OpenFOAM: The Open Source CFD Toolbox           |
|  \\    /   O peration     | Version:  3.0.1                                 |
|   \\  /    A nd           | Web:      www.OpenFOAM.org                      |
|    \\/     M anipulation  |                                                 |
\*---------------------------------------------------------------------------*/
FoamFile
{
    version     2.0;
    format      ascii;
    class       volSymmTensorField;
    location    "30000";
    object      R;
}
// * * * * * * * * * * * * * * * * * * * * * * * * * * * * * * * * * * * * * //

dimensions      [0 2 -2 0 0 0 0];

internalField   nonuniform List<symmTensor> 
21000
(
(4.35135251911645e-06 -3.02583722169165e-09 -0 4.35133215322541e-06 -0 4.35134587669493e-06)
(4.22304921134592e-06 -2.85210676490757e-09 -8.54075726331873e-31 4.22315259272622e-06 -7.41667295570774e-33 4.22309797831617e-06)
(2.97741931445774e-06 -1.67492160509816e-09 -1.24831645697676e-31 2.97790523939102e-06 -1.2305674814746e-29 2.97766469912734e-06)
(3.029934171416e-07 -5.77083210889727e-11 2.09495689264299e-27 3.03030631195059e-07 7.43692125703425e-27 3.03011839276476e-07)
(1.33555966311969e-07 7.25775870262001e-12 1.43298164132447e-27 1.33541320154821e-07 4.10605657681728e-27 1.33548542035316e-07)
(6.33750284258296e-07 8.05773117170466e-11 -9.85097922899342e-28 6.33522372960367e-07 -1.52939681551309e-29 6.33635651030033e-07)
(4.4716023452009e-07 3.62417742977735e-11 2.07045949933935e-26 4.47007415321211e-07 3.3544719293291e-26 4.47083540646679e-07)
(2.40819138530283e-07 1.06380452823445e-11 8.12342730087376e-28 2.40754812668261e-07 -2.26406374423811e-30 2.40786890121982e-07)
(1.43266308037767e-07 3.71253634739512e-12 4.98549248428011e-27 1.43235512136751e-07 6.693095784219e-27 1.43250875005442e-07)
(9.85184108993043e-08 1.71209039425701e-12 7.55037253184401e-27 9.8500157015809e-08 9.59400223771397e-27 9.85092678367547e-08)
(7.68613213195116e-08 1.07541635929444e-12 -3.73834021661286e-28 7.68482239106042e-08 1.33043396014244e-29 7.68547614965242e-08)
(6.04529480817592e-08 7.97195759747042e-13 -1.53630751579586e-27 6.04433859595274e-08 -1.70460992762477e-27 6.04481606286918e-08)
(5.00097515547398e-08 7.03447541244885e-13 -3.12033490784384e-27 5.00022156598323e-08 -4.72847445257187e-27 5.00059797880966e-08)
(4.35422217524402e-08 6.60955864422461e-13 5.89071183505942e-27 4.35358315631525e-08 7.55736953992168e-27 4.35390246571631e-08)
(3.97587252485583e-08 6.50064614694884e-13 9.06828195002201e-28 3.975292423992e-08 1.52520535647695e-27 3.97558238189532e-08)
(3.84534272255488e-08 6.80686284484403e-13 4.03147373757909e-27 3.84477029742403e-08 4.74194244600849e-27 3.84505653023178e-08)
(3.95927784653741e-08 7.68355634206451e-13 -4.47199719921163e-27 3.95865915527093e-08 -5.27209610956569e-27 3.95896858753062e-08)
(4.27678989535385e-08 9.16970540905237e-13 -2.78493814246894e-27 4.27607306008165e-08 -4.14668729090007e-27 4.27643165647346e-08)
(4.75203861568814e-08 1.12874601330584e-12 4.22524350513543e-27 4.75117395856329e-08 4.83842782692134e-27 4.75160651085703e-08)
(5.2188458757348e-08 1.38772331129673e-12 -5.44434079003668e-28 5.21782148194771e-08 5.61197105935105e-29 5.21833396277783e-08)
(5.63463473763774e-08 1.73258803134113e-12 7.22886627436485e-28 5.63345270231958e-08 -4.31191819552699e-29 5.63404406191803e-08)
(5.90817473406727e-08 2.14717322582092e-12 -2.63345820875386e-27 5.90687197716283e-08 -3.80036009372538e-27 5.90752376474019e-08)
(5.95182935836795e-08 2.57861519277621e-12 -8.257932196892e-28 5.95048253701858e-08 1.01785406278679e-28 5.95115644441894e-08)
(5.72514993490634e-08 2.94946162969013e-12 -7.43020153671866e-30 5.72385995002778e-08 -8.55083967205185e-30 5.72450555369365e-08)
(5.26775490785227e-08 3.19573804615801e-12 -8.48217396239734e-27 5.26661322525351e-08 -1.3563249757753e-26 5.26718480793624e-08)
(4.75693478913564e-08 3.36020128435935e-12 -6.4935176295568e-27 4.7559723498706e-08 -1.14001535555257e-26 4.75645445670759e-08)
(4.31368630794429e-08 3.48194266170058e-12 -1.67871451984295e-27 4.31289189890835e-08 -4.70313051451126e-27 4.3132900790024e-08)
(3.84934554174921e-08 3.44530422112438e-12 -2.91039565712157e-25 3.84872650075343e-08 -7.59242461368071e-25 3.84903696713002e-08)
(3.61718487949615e-08 3.59354173511735e-12 3.91235842171104e-27 3.61668944863744e-08 1.25732630238429e-26 3.61693825539026e-08)
(3.36659806672821e-08 3.61741027484662e-12 1.99409294199608e-25 3.36623164469623e-08 8.42825435503852e-25 3.36641563153558e-08)
(3.90102574214132e-08 4.88800939570837e-12 1.33017244552362e-28 3.90069601218271e-08 -2.18232084752032e-29 3.90086243544647e-08)
(4.14025100924808e-08 5.72433622205665e-12 -8.42251846433477e-26 4.14003624487294e-08 8.42011120056464e-27 4.14014371010866e-08)
(8.5316669731973e-08 1.69550699371544e-11 -1.75848192246358e-25 8.53144141377499e-08 9.15067782626695e-25 8.5315592985571e-08)
(2.06626052280169e-07 6.22527559644244e-11 3.83826174069553e-25 2.06621805671957e-07 1.96013408601472e-24 2.06623983268006e-07)
(3.67171344933782e-07 1.46046174531065e-10 7.57600197079733e-25 3.67163345445622e-07 -5.92295236905717e-26 3.67167539561394e-07)
(6.08943083437149e-07 3.08758696030406e-10 -1.03428023831968e-30 6.08929106981226e-07 -1.71172109821259e-28 6.08936366557217e-07)
(9.0779370313807e-07 5.57984074061274e-10 2.71976540057101e-29 9.07772547664759e-07 2.53553950081327e-28 9.07783626212552e-07)
(1.27614682322678e-06 9.2390861778275e-10 -3.4364305581483e-29 1.27611723428955e-06 2.79124222710698e-30 1.27613271741716e-06)
(1.6920050478859e-06 1.40298120617567e-09 -9.21300746464755e-29 1.69196686479598e-06 6.74234980132933e-30 1.69198694435366e-06)
(2.15125282197577e-06 2.00181246947821e-09 -1.57111781305108e-29 2.15120620955805e-06 -3.22413575953331e-28 2.1512307781836e-06)
(2.63654913152124e-06 2.70499271962866e-09 2.16016676502818e-28 2.63649491859602e-06 -1.1037971954442e-27 2.63652362045762e-06)
(3.13962260213426e-06 3.50227095603149e-09 1.32984195139389e-29 3.13956181123753e-06 2.18457363122356e-27 3.13959411535753e-06)
(3.64860189789423e-06 4.37340869654245e-09 -2.00947567095114e-28 3.64853579027976e-06 -1.4955011476245e-27 3.64857108374013e-06)
(4.15627493236347e-06 5.30169628616665e-09 -2.18269871931558e-29 4.15620480051481e-06 -1.17888147260767e-27 4.15624241410567e-06)
(4.65493607008771e-06 6.2671096844273e-09 3.85147682496298e-28 4.65486324495944e-06 -2.45660174844315e-29 4.65490250335397e-06)
(5.13914137484249e-06 7.25197833160852e-09 1.06191041060937e-23 5.13906716101882e-06 -5.5150805418567e-25 5.13910738090866e-06)
(5.60362417724733e-06 8.23792990295342e-09 1.6466634443971e-23 5.60354986090585e-06 -5.68247105508473e-23 5.60359037027244e-06)
(6.04416818405421e-06 9.20807239520807e-09 -7.16485079975838e-24 6.04409501461863e-06 -5.68844236286531e-23 6.04413514805926e-06)
(6.45680482221165e-06 1.01457593735337e-08 -1.35136440858983e-23 6.45673401115609e-06 6.4491417253526e-25 6.45677312042967e-06)
(6.83811190608507e-06 1.10355066262175e-08 3.38067980823531e-28 6.83804461244126e-06 -1.9896190820444e-27 6.83808206888427e-06)
(7.18494536138877e-06 1.18626525912361e-08 1.4708174465367e-28 7.18488267814106e-06 1.94439291279804e-22 7.18491788416217e-06)
(7.49457609553454e-06 1.26138788153539e-08 -1.58221471172885e-23 7.49451902959623e-06 2.05835454306479e-22 7.49455142773682e-06)
(7.76463327251791e-06 1.32772719671457e-08 -2.4221273912344e-23 7.76458272413896e-06 7.89473315445037e-23 7.76461181012993e-06)
(7.99318884273713e-06 1.38426952014634e-08 8.8756924748307e-24 7.9931455842852e-06 7.70942742175439e-23 7.99317091828787e-06)
(8.17876602048463e-06 1.43019552872466e-08 1.7462672026341e-23 8.17873067762601e-06 -6.07288765943932e-25 8.17875189559676e-06)
(8.32038954304874e-06 1.46490410756167e-08 1.18615165195068e-28 8.32036257850875e-06 -3.87065007836988e-30 8.3203794013937e-06)
(8.41760748977129e-06 1.48802551077848e-08 1.77321083971916e-39 8.41758919126748e-06 -5.01482940713565e-41 8.41760143257343e-06)
(8.47051362617735e-06 1.49943049921504e-08 -9.51025776247062e-40 8.47050410095732e-06 -8.27049490227032e-39 8.47051167050053e-06)
(8.47972748526853e-06 1.49922527590106e-08 -2.62773856051496e-39 8.47972666096023e-06 8.41116339262262e-39 8.47972956529044e-06)
(8.44640036114821e-06 1.4877469674501e-08 1.7874829721763e-39 8.44640799165802e-06 -4.27747059414145e-41 8.44640633174037e-06)
(8.37222168938209e-06 1.46555350425604e-08 6.18955397081832e-29 8.3722373673667e-06 -1.84132880064682e-27 8.37223133272061e-06)
(8.2593266537415e-06 1.43339081214004e-08 -4.65810837702688e-29 8.25934982849824e-06 3.35613724956455e-27 8.25933968821425e-06)
(8.110264200652e-06 1.39216756144883e-08 -1.36393503019183e-29 8.11029419979143e-06 -1.51177875758041e-27 8.11028029144556e-06)
(7.92793670022454e-06 1.34292225903617e-08 1.29945782746548e-29 7.92797275440985e-06 6.07823482845034e-28 7.92795547118261e-06)
(7.7155338461061e-06 1.28678803574978e-08 1.73360350757599e-23 7.71557511544309e-06 -1.89161556481144e-25 7.71555489221341e-06)
(7.47646291920609e-06 1.22495668324457e-08 7.91203137634435e-24 7.47650852015706e-06 -7.90935246481187e-23 7.47648581915965e-06)
(7.21427742621565e-06 1.15864337986358e-08 -3.14685180063123e-23 7.21432645783987e-06 -2.87471356355792e-24 7.21430175455088e-06)
(6.93260698389659e-06 1.08905361900994e-08 -6.76461142246187e-24 6.9326585524093e-06 7.00278853790165e-23 6.9326323222081e-06)
(6.63509006543285e-06 1.0173533711182e-08 1.43388185521259e-23 6.63514330624688e-06 -6.22575366954015e-26 6.63511601232285e-06)
(6.32531181302545e-06 9.44643443646407e-09 -1.20357247883304e-29 6.32536590964581e-06 2.6183318149678e-32 6.32533799251427e-06)
(6.00674792046059e-06 8.71938512249142e-09 1.16431307507948e-29 6.00680211986117e-06 2.53292429054161e-32 6.00677398870194e-06)
(5.68271591144759e-06 8.00151166833207e-09 -8.99764051186621e-30 5.68276953571258e-06 1.13108022829294e-28 5.68274156168291e-06)
(5.35633429720408e-06 7.30080942758055e-09 -1.22856056343611e-29 5.35638675149098e-06 -1.0671913634801e-28 5.35635926299048e-06)
(5.03048993146102e-06 6.62408122454637e-09 9.75236834936987e-30 5.03054070843856e-06 6.36478569228553e-32 5.0305139882777e-06)
(4.707813468273e-06 5.97691891871761e-09 -0 4.70786214935905e-06 -0 4.70783643365614e-06)
(4.39066298747848e-06 5.36372380410693e-09 -0 4.39070924128636e-06 -5.20710836793711e-28 4.39068471990954e-06)
(4.08111434014447e-06 4.78775792115223e-09 -0 4.08115791860443e-06 4.84378593010484e-28 4.0811347368827e-06)
(3.78095925636805e-06 4.25122279131694e-09 -0 3.78099998900893e-06 -0 3.78097825051336e-06)
(3.49170742095686e-06 3.75535377504398e-09 -0 3.49174520783612e-06 8.39899928102353e-28 3.49172497788262e-06)
(3.2145967766132e-06 3.30053238131776e-09 -0 3.21463158034826e-06 -7.73859470004352e-28 3.21461289012284e-06)
(2.95060255924412e-06 2.88639693708712e-09 -0 2.95063439656782e-06 -7.16077797691795e-28 2.95061724741658e-06)
(2.70045848088216e-06 2.51196881092928e-09 -0 2.700487414061e-06 6.5588876555543e-28 2.70047178211998e-06)
(2.46466587973308e-06 2.17575528521503e-09 -0 2.4646920081852e-06 6.03244862221806e-28 2.46467784860412e-06)
(2.24352782036627e-06 1.87587957632543e-09 -0 2.24355127263925e-06 -5.49544256543874e-28 2.24353852416797e-06)
(2.03714728821165e-06 1.61015346655321e-09 4.99907614659436e-24 2.03716821463253e-06 1.63129853141213e-25 2.03715680309387e-06)
(1.84548373000916e-06 1.37621431360834e-09 9.85203343658773e-24 1.84550229589142e-06 -2.11666445164344e-23 1.84549213854468e-06)
(1.66831977624647e-06 1.17154204357053e-09 1.34869392210465e-24 1.66833615610932e-06 -3.97337936524474e-23 1.66832716377856e-06)
(1.50536530678604e-06 9.93624658399791e-10 -6.81571594564865e-24 1.50537967900165e-06 -1.86521071233627e-23 1.50537176047055e-06)
(1.35615188847879e-06 8.3988256039357e-10 -3.32572383696011e-24 1.35616443130755e-06 -1.30228166633615e-25 1.35615749342092e-06)
(1.22023988659973e-06 7.07909869032888e-10 3.75808593521984e-29 1.2202507741271e-06 -1.02560753882871e-27 1.22024472699279e-06)
(1.09695830921432e-06 5.95243888590767e-10 7.55728495695406e-29 1.09696770924661e-06 -1.76172479205338e-28 1.09696246331771e-06)
(9.85831494235292e-07 4.99770395040679e-10 -6.35313265310549e-29 9.85839565157517e-07 8.32212840417944e-28 9.85835038692032e-07)
(8.85996935300728e-07 4.1922704797314e-10 -3.13988748941449e-29 8.86003825783907e-07 -3.05037610039067e-28 8.85999937245206e-07)
(7.97089732032763e-07 3.51929497183858e-10 2.658970248007e-29 7.97095578265747e-07 1.33043526533289e-30 7.97092258540271e-07)
(7.18002055139609e-07 2.95809899731872e-10 -2.41998575099842e-29 7.18006982341978e-07 -1.31614958639127e-30 7.18004159524994e-07)
(6.48702653609067e-07 2.49738607980863e-10 4.27395429825475e-29 6.48706773065513e-07 -2.22133475605279e-28 6.48704393621898e-07)
(5.876608834879e-07 2.11738065233066e-10 1.78687292514302e-30 5.8766429588277e-07 4.07420464209927e-28 5.87662296617822e-07)
(5.35567670653852e-07 1.81398060076814e-10 -1.87790144120997e-29 5.355704619253e-07 -1.86923142453758e-28 5.35568807594409e-07)
(4.90051758569031e-07 1.56596604085809e-10 5.90037417482319e-31 4.90054006348736e-07 1.70857559922813e-28 4.90052638632387e-07)
(4.53257129345941e-07 1.37935623985181e-10 -5.48282059891417e-31 4.53258894162909e-07 -1.58038751365389e-28 4.53257800610904e-07)
(4.21064789488353e-07 1.22691962454647e-10 -1.39226061269266e-29 4.21066130769496e-07 1.46498651693154e-28 4.21065249240543e-07)
(3.98504276961882e-07 1.13074693032044e-10 1.26835118459716e-29 3.98505226191669e-07 -2.78532512367589e-28 3.98504577673777e-07)
(3.77804027348672e-07 1.0486011548224e-10 1.37837600659805e-29 3.77804638315507e-07 2.664340145368e-28 3.77804137597299e-07)
(3.69759591723784e-07 1.03144102593788e-10 -2.57524860228697e-29 3.69759851259225e-07 -1.31910794289115e-28 3.69759579177333e-07)
(3.58918998193879e-07 1.00289545458535e-10 2.46610996515143e-29 3.58919002798951e-07 1.85098711811713e-30 3.58918799034016e-07)
(3.66835556158274e-07 1.06751990338245e-10 4.92973433507941e-31 3.66835217312705e-07 1.29866916139185e-28 3.66835277701453e-07)
(3.61422437625139e-07 1.07064299231072e-10 -2.49232235777849e-29 3.6142218828787e-07 -3.81468221142127e-28 3.61422077247143e-07)
(3.77195759398362e-07 1.18758118486117e-10 -2.81868204089796e-29 3.77199975529392e-07 3.44129061862516e-27 3.7719780101889e-07)
(4.12916313654488e-07 1.36863077425379e-10 3.61654548207579e-27 4.12960590489323e-07 6.0360076068733e-28 4.12938343602301e-07)
(4.36253725631321e-07 1.41575198453265e-10 -6.25996175117654e-27 4.36345698073386e-07 3.86249366633243e-26 4.36299866805007e-07)
(4.68810475216245e-07 1.44305537767737e-10 -2.43058851501645e-26 4.68954880318579e-07 1.1928961979432e-25 4.68882899018842e-07)
(4.65347401815568e-07 1.24613302050362e-10 1.16232774101565e-26 4.65520202525932e-07 -3.6013701460852e-26 4.65434210522648e-07)
(4.43724044397035e-07 9.69403298208414e-11 3.75436048196612e-26 4.43901159564007e-07 -9.85661302784537e-26 4.43813071795833e-07)
(3.87888731855638e-07 6.20598651858953e-11 -5.50749736280366e-26 3.88034756906793e-07 1.32816777445213e-25 3.87962232042698e-07)
(3.15724989230983e-07 3.23608016966623e-11 -1.70044883908419e-26 3.15822883208196e-07 3.95399428431138e-26 3.15774357472777e-07)
(2.32717524509585e-07 1.12947212857902e-11 1.56518841453909e-27 2.32763398940552e-07 -2.65937362355244e-26 2.32740764754453e-07)
(1.53855472336564e-07 3.2554959111509e-13 3.68643185442351e-26 1.53861906416376e-07 -6.24740765772547e-26 1.53858859976e-07)
(1.79497270221263e-07 -6.44501594349896e-12 3.7821164381191e-27 1.79471410080308e-07 3.95563286568795e-28 1.79484486644527e-07)
(3.53463766502631e-07 -2.37317048308601e-11 4.31148881865195e-26 3.53339843322147e-07 -5.94089742565975e-26 3.53401947463413e-07)
(6.57032508874916e-07 -6.14711632068781e-11 1.05930585829064e-26 6.56659768812988e-07 1.19710336959973e-27 6.5684611281158e-07)
(1.1294204041096e-06 -1.33286088124915e-10 1.58866814143451e-26 1.1285306615108e-06 9.59450676353191e-28 1.12897491641796e-06)
(1.77297214236108e-06 -2.51947908663763e-10 8.75987589443453e-26 1.77119943087467e-06 -1.15370290680775e-25 1.77208404731187e-06)
(2.53316493142492e-06 -4.12797253710221e-10 -3.96308412646219e-25 2.53015801438043e-06 4.6976959915613e-25 2.53165809468512e-06)
(3.38759015591144e-06 -6.01443428060003e-10 -2.6080099335326e-28 3.38301933128639e-06 2.83612898660757e-28 3.38529918596274e-06)
(4.39609048709715e-06 -8.22135937697541e-10 2.71040465297869e-28 4.38949334272827e-06 -3.43749012190995e-28 4.39278312411914e-06)
(5.57640613618483e-06 -1.0649183680456e-09 -6.54324959049937e-25 5.56725011986438e-06 8.17061497151853e-25 5.57181531408473e-06)
(7.09794326292647e-06 -1.35744993823632e-09 -7.7070832707292e-25 7.08523328810015e-06 9.44658841687651e-25 7.09156838447538e-06)
(9.08974222023617e-06 -1.70551341111826e-09 9.11145495325895e-25 9.07201854419953e-06 -1.13181435907489e-24 9.08085077832369e-06)
(1.2230252255635e-05 -2.28582460964064e-09 -8.23934979185974e-25 1.22037862261298e-05 8.7971461430179e-25 1.22169670504447e-05)
(1.74733906537778e-05 -3.68355156488604e-09 8.78482196719543e-25 1.74301846563831e-05 -1.14085004245874e-24 1.74516915695527e-05)
(2.55434781191229e-05 -7.05888803306275e-09 1.27289760066481e-25 2.54702248407377e-05 2.58023339317501e-27 2.55066730176249e-05)
(3.78535041556403e-05 -1.5437641023479e-08 -2.10753042746095e-24 3.77264032816813e-05 3.47951179829254e-24 3.77896239573772e-05)
(5.69933573451417e-05 -3.71502564386124e-08 -1.93797886073637e-25 5.67678341416136e-05 1.0851661584245e-27 5.68799775558745e-05)
(8.54626377211413e-05 -9.31458746073433e-08 3.21206085341972e-24 8.50695779506531e-05 -4.60403556977856e-24 8.52650094089556e-05)
(0.000119454978258425 -2.15237278679621e-07 -1.77177784635189e-24 0.000118863198715464 1.09401263561795e-24 0.000119157508709473)
(0.000124874435111074 -3.18452788517169e-07 -5.03694529902908e-25 0.000124362330470996 8.20695748643184e-27 0.000124617459769784)
(7.73978039167326e-05 -1.93681774734013e-07 3.33851639554826e-25 7.72323276204686e-05 6.0492800865219e-25 7.73150483386528e-05)
(3.48305600400203e-05 -6.51725143703392e-08 3.6971247321743e-27 3.48055571132839e-05 2.66240177549027e-25 3.4818080213122e-05)
(1.17358572949063e-05 -1.35211408233909e-08 -4.40659946383257e-27 1.17345541886608e-05 4.89645127676751e-29 1.17352279221273e-05)
(5.06874699308818e-06 -3.90300080430077e-09 4.68248805399846e-31 5.06864495155826e-06 -2.03731934064563e-33 5.06869292159548e-06)
(2.90865413020753e-06 -1.2861507166056e-08 -0 2.90835267881407e-06 -0 2.90852078123242e-06)
(2.73007254177961e-06 -1.14298078051527e-08 -5.10318109890905e-31 2.73028221951882e-06 -4.80552351222937e-29 2.73016095918265e-06)
(1.97535313957467e-06 -6.97265096959039e-09 1.47550652688363e-26 1.97686171658201e-06 1.97984972016743e-28 1.97611641626133e-06)
(8.36987585974148e-07 -1.32358474734435e-09 -1.3013323918954e-27 8.37570911976594e-07 3.92808181009272e-27 8.37279977334778e-07)
(2.788947161805e-07 -1.20164340334223e-11 -1.8923517122412e-26 2.78781602752522e-07 -4.83682003140061e-26 2.78839937100198e-07)
(1.39956728141737e-07 8.03644042233992e-11 -1.29051581344017e-26 1.39706645941887e-07 -3.30850756656134e-26 1.39832444744265e-07)
(7.38443896880279e-08 3.27301351483876e-11 -1.92780115746421e-26 7.37108103160856e-08 -3.12355753806013e-26 7.37778682254065e-08)
(4.06071529577644e-08 1.06243896034283e-11 -1.13946536002436e-27 4.05477721991063e-08 -6.63460867095723e-30 4.05775528920624e-08)
(2.59007616447117e-08 4.08697407478744e-12 -3.70830477884313e-27 2.58697743067321e-08 -6.98444294298634e-27 2.58853023736574e-08)
(1.8231634233686e-08 1.93566092813289e-12 -1.67097350673982e-27 1.82126733547807e-08 -2.39159273685116e-27 1.82221727424637e-08)
(1.41854207247528e-08 1.20984151924942e-12 -4.48945069378975e-28 1.41717992527801e-08 3.6484856760904e-30 1.41786211191409e-08)
(1.14569875271712e-08 9.22736486659407e-13 1.11033774675906e-27 1.14467173787526e-08 1.82575044715696e-27 1.14518594343007e-08)
(9.92940614027286e-09 8.4392726394461e-13 -1.49410434125794e-28 9.92088873342103e-09 -1.26025315387664e-28 9.92515154035151e-09)
(9.21079046873155e-09 8.36435815201758e-13 -1.73807845684472e-27 9.20306511249616e-09 -3.51618255731953e-27 9.20693029964629e-09)
(9.06836844368889e-09 8.79120263419229e-13 8.1224372196259e-27 9.06077595047082e-09 1.00360689207718e-26 9.06457303400389e-09)
(9.49365213092085e-09 9.85932049718398e-13 -6.42186519160783e-27 9.48551252767629e-09 -6.57789752191271e-27 9.48958215127846e-09)
(1.05409995665856e-08 1.18744831721004e-12 5.32262020524339e-27 1.05314884642932e-08 8.02865526289374e-27 1.05362422803526e-08)
(1.22153047468767e-08 1.50785173342843e-12 -1.7542528576117e-27 1.22034665105761e-08 -3.634782456174e-27 1.22093828942362e-08)
(1.44987569380579e-08 1.977388635924e-12 -6.43377197629884e-27 1.44835020981533e-08 -8.38214076148903e-27 1.44911253748414e-08)
(1.71590561522329e-08 2.62972562938701e-12 6.39890154126472e-30 1.71395636410164e-08 5.85855243688029e-30 1.71493043844762e-08)
(2.01467979983449e-08 3.59390957211597e-12 1.30279872392054e-26 2.01223059770873e-08 2.08050063869286e-26 2.01345446949326e-08)
(2.33215431659706e-08 4.96407864501536e-12 -1.28845346286816e-26 2.32916760484846e-08 -1.75910704031457e-26 2.33065997732292e-08)
(2.64553672403278e-08 6.79198688841732e-12 2.54184236182096e-26 2.64204655932809e-08 3.19761273072997e-26 2.6437902671755e-08)
(2.93467151082166e-08 9.07685506005895e-12 -4.3873461242696e-27 2.93079264507976e-08 4.65737652633187e-28 2.93273009959766e-08)
(3.19387084645873e-08 1.17901897280601e-11 2.383925339042e-26 3.18977051476182e-08 4.65230433370125e-26 3.19181773493779e-08)
(3.44965902636516e-08 1.50142844635849e-11 2.98978517505317e-26 3.44547123901705e-08 4.61051631669059e-26 3.44756111408963e-08)
(3.72353233225615e-08 1.87687431701764e-11 -3.10713928083289e-24 3.71935936335208e-08 -5.90445515122764e-24 3.72144084113713e-08)
(3.99377216979727e-08 2.2731435679982e-11 -1.10160108306893e-24 3.98977995217369e-08 -2.80133152503656e-24 3.9917692845792e-08)
(4.31400788716731e-08 2.76941946559391e-11 1.06061368270292e-24 4.310255606146e-08 -4.0182937635733e-25 4.31212560314435e-08)
(4.68614647284813e-08 3.3393210133673e-11 -1.48769659531226e-24 4.68275839498521e-08 -6.45183833184361e-24 4.68444186300916e-08)
(5.33107648235757e-08 4.45043828427989e-11 -8.01674811305641e-25 5.327974925826e-08 1.02091172344649e-25 5.32952344586397e-08)
(6.28638844027881e-08 6.03393379370428e-11 1.15088003925228e-24 6.28368024080658e-08 -1.07878487052554e-25 6.28501250956307e-08)
(8.79746424445666e-08 1.16623319303827e-10 1.75954857033389e-24 8.7944485916144e-08 1.06756016207313e-23 8.79595962398953e-08)
(1.41968321509635e-07 2.68782607955599e-10 -2.46089472240488e-24 1.41920295707219e-07 1.7894970668475e-23 1.41943860932175e-07)
(2.13624236910913e-07 5.2149346219958e-10 -3.83785175089319e-24 2.13548844611008e-07 -4.91613900006853e-23 2.13586264551426e-07)
(3.08268030608659e-07 9.36848242511792e-10 -2.10303361519468e-37 3.08154562080897e-07 -7.23238384732349e-23 3.08210490937974e-07)
(4.23488011110693e-07 1.53475855858176e-09 -1.47511466608761e-42 4.23332090685699e-07 -1.6754688888119e-27 4.2340913662369e-07)
(5.60504473220629e-07 2.35750929674112e-09 -9.82015558385375e-40 5.60301561345202e-07 2.65514666438729e-27 5.60401510823999e-07)
(7.15609780409768e-07 3.40648437373358e-09 1.72361902751049e-28 7.15360914883104e-07 -1.10560757013159e-29 7.15483462469028e-07)
(8.87227616256366e-07 4.69052914577263e-09 -1.56543838441037e-28 8.86934894397625e-07 -1.30229743622157e-27 8.87078701847608e-07)
(1.07199596072605e-06 6.19337315805568e-09 -6.85869254430758e-29 1.07166451402834e-06 -7.86703877373586e-29 1.07182710452849e-06)
(1.26783345502301e-06 7.90218617191401e-09 9.56491579311227e-29 1.26746888046292e-06 1.06841723628888e-27 1.26764730403599e-06)
(1.47228814586785e-06 9.79308292469776e-09 -4.66149203696126e-28 1.47189709178838e-06 -3.56098915964946e-27 1.47208806109677e-06)
(1.68365392631272e-06 1.18448118274034e-08 4.05304901154684e-28 1.68324301535215e-06 6.62851476418002e-27 1.68344315558325e-06)
(1.9002442316738e-06 1.40321068303095e-08 -0 1.899820349224e-06 7.50155346403371e-30 1.9000262461171e-06)
(2.12073722930728e-06 1.63311385229651e-08 -3.86303135087034e-23 2.12030720312334e-06 2.0101476014156e-24 2.12051543751934e-06)
(2.34385279698784e-06 1.87163413667341e-08 -5.36236789551964e-23 2.3434235795913e-06 -2.90607096910783e-22 2.34363071801608e-06)
(2.56844584756561e-06 2.11623611061358e-08 3.4192251723487e-23 2.5680244390141e-06 -3.26970781536743e-22 2.56822701995919e-06)
(2.79337130759089e-06 2.36426764298604e-08 5.04880467421205e-23 2.79296482466707e-06 -2.41852147623987e-24 2.79315935728273e-06)
(3.01751245709481e-06 2.61304106723331e-08 4.75936440451947e-23 3.01712807249903e-06 -2.05869271017692e-24 3.01731104537034e-06)
(3.23973539952361e-06 2.8597973809346e-08 8.08765587145477e-23 3.23938030510978e-06 -4.89342868467058e-22 3.23954821713886e-06)
(3.45890812311006e-06 3.10176540138596e-08 4.14019933158878e-23 3.45858942501391e-06 -5.1728615400863e-22 3.45873882818553e-06)
(3.67389620835248e-06 3.33618262819539e-08 2.96535284873448e-23 3.67362081779954e-06 4.68650057422515e-22 3.6737483752805e-06)
(3.8835813773824e-06 3.56035386571128e-08 -5.02339237382616e-23 3.88335587349538e-06 5.03619437577898e-22 3.8834584228361e-06)
(4.0868678865153e-06 3.77169184231931e-08 -7.54237582768816e-23 4.08669838058678e-06 2.62883918843342e-24 4.08677300106778e-06)
(4.28269493727524e-06 3.96776868157006e-08 -5.31622418967216e-28 4.28258693053771e-06 1.73479028100306e-29 4.28263101012415e-06)
(4.4700515210357e-06 4.14636467102779e-08 -8.19917818373957e-39 4.47000977210314e-06 2.31881505280469e-40 4.4700210718349e-06)
(4.64797831426347e-06 4.30550075091845e-08 5.96648064208728e-39 4.64800672928125e-06 -5.72663058890387e-27 4.6479834343683e-06)
(4.81567853404767e-06 4.44347859812863e-08 1.15060409483302e-38 4.81578007235451e-06 5.93327447012957e-27 4.81572083665946e-06)
(4.97212024011365e-06 4.5587814678855e-08 -6.37250020355485e-28 4.97229682940394e-06 1.38631618032471e-29 4.97220081522943e-06)
(5.11664122087038e-06 4.65045839950654e-08 6.97249598106345e-28 5.1168937201962e-06 6.17645876173678e-27 5.11676061338364e-06)
(5.24868200454786e-06 4.71789257444761e-08 7.76567532513559e-28 5.24901019768195e-06 -5.20829723808757e-27 5.24884020884998e-06)
(5.36780869996699e-06 4.76084455019388e-08 -1.18351661610269e-27 5.36821131494957e-06 -1.16651750215432e-27 5.36800516779444e-06)
(5.47371190081144e-06 4.77944055737372e-08 3.5263776918768e-28 5.47418665793255e-06 -2.36749822240945e-27 5.47394556378109e-06)
(5.56620579426813e-06 4.774154110272e-08 -1.09270567075011e-22 5.56674947794999e-06 1.18742193507601e-24 5.56647509891322e-06)
(5.64522447317043e-06 4.74577919979499e-08 -3.53360599536405e-23 5.64583302460145e-06 -7.67011891560691e-22 5.64552742680996e-06)
(5.71081589516309e-06 4.69539664814645e-08 2.18313569918159e-22 5.71148452101962e-06 -4.08647831481354e-23 5.71115012033303e-06)
(5.76313393140936e-06 4.6243354921508e-08 3.33083796981483e-23 5.76385722392634e-06 7.53091468616811e-22 5.76349672640455e-06)
(5.80242879079659e-06 4.53413097508524e-08 -1.09317268033116e-22 5.80320085438207e-06 4.74520477667787e-25 5.80281719387456e-06)
(5.82903627120836e-06 4.42648097504662e-08 1.13028038630189e-38 5.82985085091909e-06 4.76002516077387e-28 5.82944712607885e-06)
(5.84336618443246e-06 4.30320234217665e-08 1.15080098684569e-38 5.84421679232121e-06 4.82040645084209e-28 5.84379620490432e-06)
(5.84589029753495e-06 4.16618858321707e-08 2.60215415936221e-39 5.84677033291428e-06 -1.13797780245065e-27 5.84633612935806e-06)
(5.83713019824546e-06 4.01737008956001e-08 -1.14960553555132e-38 5.83803305922771e-06 6.54298685833997e-28 5.83758847665004e-06)
(5.8176452461724e-06 3.85867773472692e-08 -0 5.81856442996458e-06 -1.95185281855458e-27 5.8181126478966e-06)
(5.7880209722076e-06 3.6920106048374e-08 -4.00394932949594e-28 5.78895016254528e-06 5.84509142865067e-27 5.78849426099781e-06)
(5.74885809142709e-06 3.51920831075877e-08 2.87347497645794e-28 5.7497912323984e-06 -1.0027166390263e-28 5.74933415679689e-06)
(5.70076219725154e-06 3.34202786646381e-08 5.04093116365485e-28 5.70169355292083e-06 1.40998293666338e-28 5.70123808581597e-06)
(5.64433436690324e-06 3.16212556534676e-08 4.01191982893175e-28 5.64525856727346e-06 -3.84639551881406e-27 5.64480730711368e-06)
(5.58016252395331e-06 2.98104294543616e-08 -5.95255867592219e-28 5.58107459717561e-06 2.23511641440306e-28 5.58062994314964e-06)
(5.50881392650928e-06 2.80019789768224e-08 -1.73872640164011e-27 5.50970931942213e-06 -2.68086959024464e-28 5.50927346306068e-06)
(5.43082818384349e-06 2.62087819948964e-08 1.3658160210198e-27 5.43170277005052e-06 7.35994670781198e-27 5.43127769099667e-06)
(5.34671163758663e-06 2.44424104438689e-08 1.68391471355602e-27 5.34756171753069e-06 2.95274318070626e-28 5.34714918628852e-06)
(5.25693171077698e-06 2.2713112919017e-08 -1.3511520044846e-27 5.25775400010956e-06 -7.17463842704823e-27 5.25735558120115e-06)
(5.16191304658479e-06 2.10298936032369e-08 -8.79108845037817e-28 5.16270466222772e-06 -2.45805513868532e-28 5.16232172699889e-06)
(5.06203267380184e-06 1.94004934968761e-08 -1.08810899255789e-22 5.06279110659856e-06 -3.55071884498209e-24 5.06242483848349e-06)
(4.95761761086826e-06 1.78315804502879e-08 -2.26632397478486e-22 4.9583407053864e-06 -7.43398088289291e-22 4.9579921240998e-06)
(4.84894027492107e-06 1.63286370213562e-08 -2.36742269930581e-23 4.84962618797778e-06 -1.44022315673989e-21 4.84929614824279e-06)
(4.73621737103061e-06 1.489636182325e-08 1.94888800101919e-22 4.73686455517863e-06 -6.95472916348804e-22 4.73655378937378e-06)
(4.61960526321786e-06 1.35382672627683e-08 1.00783905608631e-22 4.62021240867091e-06 3.93320646191102e-24 4.61992150240434e-06)