/*--------------------------------*- C++ -*----------------------------------*\
| =========                 |                                                 |
| \\      /  F ield         | OpenFOAM: The Open Source CFD Toolbox           |
|  \\    /   O peration     | Version:  4.1                                   |
|   \\  /    A nd           | Web:      www.OpenFOAM.org                      |
|    \\/     M anipulation  |                                                 |
\*---------------------------------------------------------------------------*/
FoamFile
{
    version     2.0;
    format      ascii;
    class       volVectorField;
    location    "30000";
    object      U;
}
// * * * * * * * * * * * * * * * * * * * * * * * * * * * * * * * * * * * * * //

dimensions      [0 1 -1 0 0 0 0];

internalField   nonuniform List<vector> 
21000
(
(0.0148817499303072 8.69829482796048e-06 0)
(0.0146694491147546 -0.000171124184760254 0)
(0.0122719360594298 -0.00100427241511314 3.66544552605349e-22)
(0.00359207904702876 -0.000755738414121375 -3.8951492160938e-22)
(-0.00237693586908297 0.000738920583814249 -2.97938634115969e-18)
(-0.00516613310250164 0.00254412152547922 0)
(-0.00411180012767166 0.00256825536451177 -5.89026541655723e-22)
(-0.00288664414022774 0.00208034662657231 1.74364187970845e-22)
(-0.0021565288877884 0.00169539491406281 -5.80403923661666e-18)
(-0.00175175989995668 0.00145020139973684 5.95600859836094e-18)
(-0.0015329211995752 0.00129789218487151 -7.55040931557081e-22)
(-0.00135971289493176 0.00115030112487563 1.29053815088301e-17)
(-0.00124569750535875 0.00103463224778168 1.65301679553211e-21)
(-0.00117056058545645 0.000954306894164827 -7.09595552738827e-18)
(-0.00112493841249098 0.000902622151980446 7.40478489172447e-18)
(-0.00111109396302938 0.0008801224071839 0)
(-0.00113112391505696 0.000886753781294792 0)
(-0.00117811761456547 0.000916764427143483 8.25635639271045e-18)
(-0.00124349868540138 0.000962642555089616 -8.515425891675e-18)
(-0.00130655435945579 0.00100246284653443 -8.59968354977525e-21)
(-0.00136664662362366 0.00102732313003105 -8.90514697733189e-21)
(-0.00141442005250238 0.0010284792574138 -9.43426999796914e-18)
(-0.00144039937115528 0.000998587042538519 -1.91813473601787e-20)
(-0.00143858270671577 0.000934546494027832 9.9774266762592e-21)
(-0.00140975263143259 0.000839549869271206 0)
(-0.00137133319083407 0.000729781437883558 5.54416783099249e-18)
(-0.00133556355194792 0.000620980437453923 5.77674777130887e-18)
(-0.00128670324490277 0.000508705746167917 -2.32213939662063e-20)
(-0.00127010306420427 0.000409928372376068 0)
(-0.00124172867355622 0.000307240927651792 0)
(-0.00135897449480774 0.000229852644141392 -2.47704536547465e-20)
(-0.00140723737420779 0.000122996165727555 -1.58354895314138e-18)
(-0.00205971856933615 3.84121237204958e-05 9.23268866778851e-16)
(-0.00324142146368337 1.39694036776123e-05 9.37496911624504e-16)
(-0.00433491829111298 1.70981874778142e-05 -1.24403037266252e-20)
(-0.00559588263103017 1.84051919860089e-05 1.24355057144426e-20)
(-0.00684076386436638 2.07082422450955e-05 -1.24434255324786e-20)
(-0.00811764622566848 2.20940485308251e-05 -9.88660181512062e-24)
(-0.00935184558671086 2.35728987703419e-05 -1.26035692629004e-23)
(-0.0105483106607083 2.45711458500686e-05 2.49193863200701e-20)
(-0.0116797117659923 2.54527789714825e-05 1.86797936932343e-23)
(-0.0127464520378347 2.60535661613142e-05 -1.24779447785599e-20)
(-0.0137409516616347 2.65100389002168e-05 0)
(-0.0146650597504176 2.67763564710559e-05 1.25455915329065e-20)
(-0.0155183515915539 2.69019482858865e-05 3.10542413977146e-23)
(-0.0163032233231034 2.6872218744375e-05 -2.51750917770727e-20)
(-0.0170210523709291 2.67031664744331e-05 -9.38829214326376e-16)
(-0.0176737854239043 2.63888297752391e-05 -9.50908300041806e-16)
(-0.0182627390408052 2.59339868839452e-05 1.26737116567681e-20)
(-0.018789175942698 2.5336756447772e-05 1.27587696049645e-20)
(-0.0192539876069267 2.46000001162202e-05 -1.27570619447664e-20)
(-0.0196579560982778 2.37254909760319e-05 6.42610350197871e-21)
(-0.020001715430154 2.2717865147039e-05 9.59184385218702e-16)
(-0.0202858945805647 2.15825270377361e-05 9.70092551962049e-16)
(-0.0205111466116067 2.03268547567335e-05 6.47717865541881e-21)
(-0.0206782293279409 1.8959450539652e-05 0)
(-0.0207880475940423 1.74906682510409e-05 0)
(-0.0208417008804523 1.5932072136216e-05 -9.57107676788186e-32)
(-0.0208404976816316 1.42959387233611e-05 9.61520818383857e-32)
(-0.0207859765737647 1.25955766675656e-05 0)
(-0.0206799129727011 1.08447886149264e-05 0)
(-0.0205243119973664 9.05748514313376e-06 -3.35897576104205e-21)
(-0.0203213983564158 7.24755439687096e-06 3.35916438492537e-21)
(-0.0200735987636652 5.42861564445723e-06 -3.39161087596141e-21)
(-0.0197835201698818 3.61382452849227e-06 3.39189548733543e-21)
(-0.0194539247373637 1.81566948075564e-06 -1.02087615232789e-15)
(-0.0190877020268296 4.58140044632542e-08 -5.16889204952264e-17)
(-0.0186878401386494 -1.6850402079567e-06 9.81868602874306e-16)
(-0.0182573961162339 -3.36725851054767e-06 -8.6452408798174e-22)
(-0.017799467041153 -4.99234037259972e-06 0)
(-0.0173171619761339 -6.55297226938896e-06 0)
(-0.0168135757835582 -8.04303095961661e-06 -8.80677807714197e-22)
(-0.0162917650644026 -9.45758612685982e-06 8.80818151423574e-22)
(-0.0157547266328071 -1.07928564168448e-05 0)
(-0.0152053786584973 -1.20461715013284e-05 0)
(-0.0146465452773089 -1.32158848832879e-05 0)
(-0.014080943148271 -1.43013301890228e-05 0)
(-0.0135111730402891 -1.53026732629147e-05 0)
(-0.0129397108746165 -1.62209227534915e-05 0)
(-0.0123689079641363 -1.70576529375666e-05 0)
(-0.0118009831219948 -1.78152171616035e-05 0)
(-0.0112380363068316 -1.84961209610616e-05 0)
(-0.0106820327160343 -1.91038265610246e-05 0)
(-0.0101348434527091 -1.96411612989046e-05 0)
(-0.00959819831954627 -2.01127224478172e-05 0)
(-0.00907378977159121 -2.05207224241014e-05 -1.11494562461411e-15)
(-0.00856313586417251 -2.087152644198e-05 -2.22972678285464e-15)
(-0.0080678394242315 -2.11649755792802e-05 -1.11418819510743e-15)
(-0.00758921796659025 -2.14111900202046e-05 0)
(-0.0071289393358957 -2.16039980053299e-05 1.50688617327175e-20)
(-0.00668807839626097 -2.17621993116385e-05 -1.50709614833202e-20)
(-0.00626865126375769 -2.18657653020084e-05 -1.51543912220109e-20)
(-0.0058713008402375 -2.19534712907323e-05 1.51563017552055e-20)
(-0.00549894091330169 -2.19744086348954e-05 0)
(-0.00515123806014767 -2.20121944246425e-05 0)
(-0.00483312116059066 -2.19485853924524e-05 1.53134908253193e-20)
(-0.00454189205215708 -2.19658014907173e-05 -3.06659262044182e-20)
(-0.00428684453224249 -2.17998018221068e-05 1.53522958337794e-20)
(-0.00405963249492779 -2.18475566993262e-05 -1.54236687411656e-20)
(-0.0038788732808885 -2.15302614262156e-05 1.542463609598e-20)
(-0.00372319293616697 -2.17101108224218e-05 -1.54934561873368e-20)
(-0.0036308269780495 -2.11291452184143e-05 3.10215179775404e-20)
(-0.00355176734203025 -2.16502350587773e-05 -3.10885248245679e-20)
(-0.00356453441270129 -2.05609015158353e-05 1.55607978087513e-20)
(-0.00355947566380929 -2.18793041751107e-05 0)
(-0.00369059053599369 -1.9875808477283e-05 -1.5657165108676e-20)
(-0.00373191850777989 -2.35116947428355e-05 -3.14493478137565e-23)
(-0.00391717268998417 -6.12002929439224e-05 1.56972502318412e-20)
(-0.00413233208633763 -0.000346666529186953 -3.15614002021419e-20)
(-0.00419288660468216 -0.00066171973972041 -3.98575205122248e-18)
(-0.00425395029574444 -0.000983924833645201 0)
(-0.00407280952266678 -0.00122960287134652 -7.78846423087759e-18)
(-0.00376707589459512 -0.00139363170248776 0)
(-0.00323551477186773 -0.00140426898518746 -7.39035868480546e-18)
(-0.00255091864222787 -0.00125658329360057 -7.11612238042953e-18)
(-0.00166879672787569 -0.000899038370497495 -1.3725215418347e-17)
(-0.000585325678832306 -0.000299731154512658 2.64505243873622e-17)
(0.000674245785432857 0.000525565390491679 0)
(0.00209281160602673 0.0015480608816989 1.22995614803318e-17)
(0.0036356106737249 0.00272004609702221 0)
(0.00528864729742048 0.00399922324051081 0)
(0.0069810584125292 0.00530158910955518 -1.11266059185091e-17)
(0.00858049290042599 0.00653681270095086 -1.05359940890625e-20)
(0.0100704977808853 0.00772813127119889 0)
(0.0115637194736707 0.00896888978452307 0)
(0.0130628301452594 0.0102762408891492 0)
(0.0147386131653496 0.0117870042246726 0)
(0.0166345915688219 0.013560951532833 1.94043379306657e-21)
(0.0192402767387857 0.0159565688369469 -8.22614561363363e-18)
(0.0230807037961887 0.019127451854676 7.77060460896096e-18)
(0.0282467507658472 0.0228463320766555 0)
(0.035120514144348 0.0270000219577726 -5.70741228319748e-21)
(0.0444461724872241 0.0314032363938911 1.95061298220435e-22)
(0.0567429853697861 0.0350374981002931 6.21169362489146e-18)
(0.070647789918419 0.0350657916148562 -5.83575776829421e-18)
(0.0762959570104662 0.0261423977083612 -3.26897585857863e-22)
(0.0622505121519592 0.0122929937612216 1.33533320924517e-18)
(0.0423525495253498 0.00368809022895106 -6.80880686092235e-19)
(0.0245750440246074 0.000368110522594967 1.67883123073764e-22)
(0.0160565824228882 2.28733284460094e-06 0)
(0.0481153088996083 0.000134981233616116 0)
(0.0465454727172234 -0.000413028975026263 0)
(0.039238481320039 -0.00266555330231671 0)
(0.0146574454926746 -0.00213152042267412 -2.30623907121432e-18)
(-0.00410300284807431 0.00193775345818611 0)
(-0.0138047248824927 0.00719791389264015 0)
(-0.0118469808313662 0.00746010349472314 -8.81240527201827e-18)
(-0.00855115845583446 0.00614420484236048 0)
(-0.00643790630278204 0.00504836571484374 -3.13116223196076e-23)
(-0.00523802323345414 0.00433558766034961 -1.83547763981011e-17)
(-0.00458573693378691 0.00388788580555126 1.16333246336394e-21)
(-0.00408359941024564 0.00345520459290239 -9.94327587399965e-18)
(-0.00375077758868904 0.00311273566380348 1.04283623394717e-17)
(-0.00353200251902053 0.00287397169489621 -1.09109479649433e-17)
(-0.00340107448849638 0.00272118348465706 -1.14055871059841e-17)
(-0.00336318549162709 0.00265591407426297 -1.18448105709773e-17)
(-0.00342447811702335 0.00267735927915542 1.22904823971061e-17)
(-0.00356557856349118 0.00276837843249308 1.24200277459381e-20)
(-0.00376200080356899 0.00290633688606462 8.77918829104341e-24)
(-0.00395676555469642 0.00302809236963092 -1.32224837156847e-20)
(-0.00414572988304883 0.0031058310386836 -1.36878004054197e-20)
(-0.00430318620589773 0.00311315800711313 1.45526683997053e-17)
(-0.00440250388656222 0.00302826658901328 -1.47258661515831e-20)
(-0.00442679901717131 0.00284197649149076 0)
(-0.00437813761953406 0.00256392766009759 1.63400027648056e-17)
(-0.00430351912912042 0.00224054747236226 8.50497947925745e-18)
(-0.00423838368632158 0.0019167567237891 3.44764607964608e-20)
(-0.00414613941372418 0.00158414056733035 1.03240527193434e-15)
(-0.00414849726291828 0.00128767138471399 -1.73072891764673e-17)
(-0.00414830530831996 0.000987968610247767 -1.19708286799679e-15)
(-0.00455869227702763 0.000751934327555331 3.7910560345506e-20)
(-0.00490272941760443 0.000464675360141511 3.81560756152954e-20)
(-0.0069452887287645 0.000274533676083736 -1.43395683336221e-15)
(-0.0104194092741813 0.000225870704377514 -1.40747932735542e-15)
(-0.0136962361926047 0.000243018234587478 0)
(-0.0173823294776151 0.000253043583576174 0)
(-0.0210082328613703 0.000257106160617288 0)
(-0.0246786030811405 0.000254047016199949 0)
(-0.0282043869428662 0.000246462037088312 1.37268274629568e-31)
(-0.0315933331983192 0.000235234986209783 -1.88704159207857e-20)
(-0.0347789492619527 0.000222127414849191 1.88427271880807e-20)
(-0.0377630315313719 0.000207883414958005 -1.88782577230212e-20)
(-0.0405295875533562 0.00019335439357526 1.88545697326962e-20)
(-0.0430854181980544 0.000178855501469912 0)
(-0.0454320590077974 0.000164666359628292 0)
(-0.0475775124669084 0.000150833764641216 0)
(-0.049527142534195 0.000137384094495542 1.42651233337442e-15)
(-0.0512873551156062 0.000124265692451184 1.41520080970717e-15)
(-0.0528628257030496 0.000111432666737724 0)
(-0.0542578824690048 9.8826610007426e-05 0)
(-0.0554758241035448 8.64065253201971e-05 -1.23490443358306e-15)
(-0.0565195789230323 7.41410170001816e-05 -1.24952049351349e-15)
(-0.0573916641717007 6.20169773304375e-05 -1.44995840885033e-15)
(-0.0580945570393014 5.00342816297247e-05 -1.44454031437066e-15)
(-0.0586307958371001 3.82064224287641e-05 -9.71566433977252e-21)
(-0.0590031927164062 2.65575826454944e-05 0)
(-0.0592149460911246 1.51219550225509e-05 0)
(-0.0592697530202072 3.93937106957613e-06 1.43555520004722e-31)
(-0.0591718415509029 -6.94666093557159e-06 -1.44217056533356e-31)
(-0.0589260341702735 -1.74900769073634e-05 0)
(-0.0585377660568715 -2.76446523219883e-05 1.00295138898471e-20)
(-0.0580130527458473 -3.73661135713372e-05 -1.50711172965941e-20)
(-0.0573584608145419 -4.66129688948517e-05 5.04095487716036e-21)
(-0.0565810584188268 -5.53477140711421e-05 0)
(-0.0556883554126281 -6.35375178305506e-05 0)
(-0.0546882355975239 -7.11548539070971e-05 1.53602863391702e-15)
(-0.05358888258403 -7.81778444032096e-05 7.30514203826118e-17)
(-0.0523987035365326 -8.45904363034471e-05 -1.47399923780008e-15)
(-0.0511262517998796 -9.03824002547287e-05 1.51705017512112e-31)
(-0.049780151814596 -9.5549148448161e-05 0)
(-0.0483690268635261 -0.000100091487141515 0)
(-0.0469014320698259 -0.000104015172183704 -1.54077944652873e-31)
(-0.0453857932846832 -0.000107330485418874 0)
(-0.0438303527964279 -0.000110051662232299 0)
(-0.042243122304959 -0.000112196344694749 0)
(-0.0406318447352184 -0.000113784938283236 5.41177584259845e-21)
(-0.0390039617739269 -0.000114840090245159 -5.41600966925684e-21)
(-0.0373665935331591 -0.000115385943440736 0)
(-0.0357265185739514 -0.000115447795432677 -1.09764754837774e-20)
(-0.0340901749173832 -0.000115051092579018 1.09852211781628e-20)
(-0.0324636449226924 -0.000114221642828512 1.10744637723459e-20)
(-0.0308526880060735 -0.00011298377915664 -1.108321897076e-20)
(-0.0292627100544948 -0.000111362110786045 -1.11688594541057e-20)
(-0.0276988584249663 -0.000109377227024324 1.11774951411081e-20)
(-0.0261659231153462 -0.000107051629483464 0)
(-0.0246685771609966 -0.000104398685230539 1.68158855944689e-15)
(-0.0232110745716161 -0.000101439492941504 3.38771129081554e-15)
(-0.0217978507865529 -9.81743301430807e-05 1.70675383870324e-15)
(-0.0204326808424069 -9.46271885121263e-05 -6.58085488223435e-23)
(-0.0191201655693765 -9.07740509308029e-05 2.28721464763607e-20)
(-0.0178635359811383 -8.66538232131317e-05 2.30137753732388e-20)
(-0.0166682865504074 -8.21955084508089e-05 -2.30278433093329e-20)
(-0.0155366838013673 -7.74820138510583e-05 0)
(-0.014476519323962 -7.23480521055042e-05 0)
(-0.0134877940082826 -6.69860713663053e-05 0)
(-0.0125834443659323 -6.10400939663216e-05 0)
(-0.0117577793901825 -5.49554342054547e-05 0)
(-0.0110348661121778 -4.7981821806863e-05 0)
(-0.0103950820226103 -4.11351078030167e-05 0)
(-0.00988624711744769 -3.28300476562115e-05 0)
(-0.00945611691704037 -2.53661337939032e-05 0)
(-0.00920243148930333 -1.5326481041397e-05 0)
(-0.00900061095583822 -7.9011984394209e-06 0)
(-0.00905061657850384 4.43108496571268e-06 0)
(-0.00907656283311176 9.61995013682253e-06 0)
(-0.00946939511334547 2.42804975220887e-05 0)
(-0.0096605879179958 1.75865547972547e-05 4.79463584312255e-20)
(-0.0102817727289241 -6.56244788144802e-05 -4.32018345049007e-19)
(-0.010922900135228 -0.000868436577835455 0)
(-0.0110685538132698 -0.00175097222816993 0)
(-0.0111380640347986 -0.00264980472997271 -1.21287905479042e-17)
(-0.0105238518019678 -0.00332701710328026 1.19048934377084e-17)
(-0.00953374651180507 -0.00375498988322494 1.16218749597955e-17)
(-0.00791882554536881 -0.00373573834162558 -1.12918637983263e-17)
(-0.00587522706488893 -0.0032503281238326 0)
(-0.00328563029337225 -0.00215769774249909 2.10775329731308e-17)
(-0.000155565856978497 -0.000373182994323712 1.15634776926957e-21)
(0.00343802732254388 0.00205194887276655 -1.91275607843881e-20)
(0.00744682627566955 0.00503181748707858 3.68370798995247e-20)
(0.0117823820822183 0.00843117095285275 -3.55589226096039e-20)
(0.0164062368375592 0.0121280793193835 1.71858996406678e-20)
(0.0211291399885275 0.0158913417084416 1.70470552891156e-17)
(0.0256163452463863 0.019480774246683 -1.64999411611327e-17)
(0.0298294566942079 0.0229617379917101 -7.76714636601229e-21)
(0.0340505331839758 0.026587576732788 7.49062776809909e-21)
(0.0383098914736903 0.0304188614171658 -1.46837405557965e-17)
(0.0430464476222998 0.034832423703092 -1.40142265038059e-17)
(0.0484254972965994 0.0400160719434238 1.33094805342874e-17)
(0.0557289049612123 0.046936984283443 0)
(0.0663430149820144 0.055986485325939 0)
(0.0806069126706167 0.0665305194574667 0)
(0.0995350971550898 0.0781820823027579 -1.05913582874198e-17)
(0.12502391345258 0.0902952685164477 -1.5566470227887e-22)
(0.158357571508281 0.09993979164441 0)
(0.196006528096283 0.0995448540237694 4.40251752786117e-18)
(0.213873933645084 0.0753396315835456 0)
(0.181885902687897 0.03750072323998 -2.01123781564991e-18)
(0.129823068915204 0.0126703743843468 7.53364857266435e-22)
(0.0799784290421457 0.00223793835186948 -2.55268770440389e-22)
(0.0537224711024128 0.000429425955280616 0)
(0.0856078171408404 0.000473622862121981 0)
(0.081669977174303 -0.000522269754998815 2.85308883241284e-22)
(0.0692473533469432 -0.00402216011953656 2.90219192428955e-22)
(0.0299363098556286 -0.00361137118113484 9.18435945043807e-24)
(-0.00271250664386252 0.00254704111039513 -5.70797490712437e-22)
(-0.0208923658494966 0.0111503583223237 4.6133559663643e-18)
(-0.0192499079504784 0.0119770407024274 9.09177121287353e-18)
(-0.0142414045169605 0.0100521384135467 2.77122971167878e-22)
(-0.0107960626228739 0.00833737109485217 5.18424621576653e-22)
(-0.00879406440760198 0.00719655553716975 9.48439495643254e-18)
(-0.00769953021468244 0.00646958674153095 0)
(-0.00687192372330344 0.00576895624781521 1.0275823237651e-17)
(-0.00631956859739268 0.00521050733475329 -2.77598081778845e-21)
(-0.00595628746302805 0.00482137011638459 9.04435613930069e-23)
(-0.00574016260360091 0.00457535013823311 -1.17719360196993e-17)
(-0.00567781596415208 0.00447506107794024 1.22412936604691e-17)
(-0.00577955987375328 0.00451791009681948 -1.26935626217837e-17)
(-0.00601450998285178 0.00467545077135983 1.31157533464981e-17)
(-0.00634341279201251 0.00490897921702675 2.64610847548903e-20)
(-0.00667624265992009 0.00511751511405575 -1.36493645159578e-20)
(-0.00700358793418179 0.00525335525914505 -1.44609683979397e-17)
(-0.00728505771238347 0.00527279490419824 1.46404434078805e-20)
(-0.00747823130559936 0.00514024985553993 -1.55913419683441e-17)
(-0.00755637119114591 0.00484109375274506 -1.58194490820988e-20)
(-0.00752316322450089 0.00439201338747975 -1.67809311733111e-17)
(-0.00745233242987036 0.00386686745677677 -8.76578594373898e-18)
(-0.00740232521157738 0.00333584700995641 1.58321282324279e-15)
(-0.0073246891891525 0.00279160404290187 6.23804098710229e-16)
(-0.00740650090366848 0.00229921599477646 6.18375084983098e-17)
(-0.00752762548849413 0.00181085816458301 1.20919810830584e-15)
(-0.00830849086660373 0.00141034613996628 -4.95371665629972e-18)
(-0.00915420938210448 0.000970924946119952 0)
(-0.01270094654341 0.000726375611587305 3.12154157966304e-19)
(-0.0184383843313104 0.000680862163949959 0)
(-0.0239159099023042 0.000721229593848688 1.87982967400274e-15)
(-0.0299553097401339 0.000747611561343984 1.90493135677044e-15)
(-0.0358720221262088 0.000751811423871446 1.9285224311655e-20)
(-0.0417941997270027 0.000738583756948501 -3.84726246041598e-20)
(-0.0474497175005172 0.000711563687790081 -1.94473480985259e-23)
(-0.0528445123685472 0.000675686459359335 3.83466480450834e-20)
(-0.0578873391663976 0.000634681480839116 2.8683917058149e-23)
(-0.0625829178168399 0.000591308772462784 -1.91272330559132e-20)
(-0.0669133029247801 0.000547475596535981 1.91609088540811e-20)
(-0.0708918769865493 0.000504206558894047 -1.91263844319322e-20)
(-0.0745249001893166 0.000462076654907339 0)
(-0.0778269676394864 0.00042122764495273 0)
(-0.0808086873873917 0.00038164306709051 0)
(-0.0834815854268133 0.000343169161884243 0)
(-0.0858544632320316 0.000305640817640046 1.93219224635702e-20)
(-0.087935314859206 0.000268888512490306 -1.93050078891781e-20)
(-0.0897305085018823 0.000232784176200632 1.25890130282068e-15)
(-0.0912457416199024 0.000197237737253026 1.25198776875989e-15)
(-0.0924860596832981 0.000162207931754751 0)
(-0.0934564066770926 0.000127693477927915 0)
(-0.0941618083207164 9.37303032738178e-05 0)
(-0.0946076909138532 6.03846446410955e-05 0)
(-0.0948000487338682 2.77484451159561e-05 0)
(-0.094745593318794 -4.07293593336869e-06 9.99239647737663e-21)
(-0.0944517796911035 -3.49638403483319e-05 -9.99210369366653e-21)
(-0.0939269509330135 -6.47998042492845e-05 0)
(-0.093180326498022 -9.3458244963053e-05 -1.01363679315484e-20)
(-0.0922219524302817 -0.000120822728062463 5.04566527152585e-21)
(-0.0910626518017413 -0.000146784936120816 5.09615822587366e-21)
(-0.0897139469584622 -0.000171247842843447 0)
(-0.0881879671200092 -0.000194127507172592 5.17555964403971e-21)
(-0.086497345316088 -0.000215354628546577 -7.78126800040477e-21)
(-0.0846551071185235 -0.000234875372938015 2.60406667709243e-21)
(-0.0826745571507024 -0.000252651728891189 0)
(-0.0805691650378378 -0.000268661397550331 6.61409464893631e-22)
(-0.0783524554394265 -0.000282897227109895 -6.62093510771349e-22)
(-0.0760379030802869 -0.000295366443639828 -6.68836921501209e-22)
(-0.073638836037233 -0.000306089422733307 6.69605681026476e-22)
(-0.0711683481816303 -0.000315098468508851 0)
(-0.0686392219814937 -0.000322436262671238 2.72008199844386e-21)
(-0.0660638623777533 -0.000328154333259017 -8.19336573416573e-21)
(-0.0634542435088555 -0.000332311354683694 -2.23608366087446e-23)
(-0.0608218645644462 -0.000334971644877801 -2.19692663069569e-23)
(-0.0581777224863843 -0.00033620329708562 5.53595619985154e-21)
(-0.0555322870804122 -0.000336076992831192 0)
(-0.0528955039058199 -0.000334663747982498 0)
(-0.050276778774916 -0.000332034669010379 -1.12846723355263e-20)
(-0.0476850239566151 -0.00032825739185975 -3.96655308844986e-23)
(-0.0451286257555879 -0.000323398378675908 1.13547926625393e-20)
(-0.0426155738967213 -0.000317515388896232 0)
(-0.0401533429200899 -0.000310666590299199 0)
(-0.0377492152491546 -0.000302892076386978 0)
(-0.035409896148751 -0.000294240645911935 0)
(-0.0331423209605676 -0.00028472298956556 0)
(-0.0309525455477207 -0.000274383070866187 2.33915194730973e-20)
(-0.0288477612013576 -0.000263181865228106 6.57805470567503e-23)
(-0.0268333328034456 -0.000251174727431874 -2.35106560023318e-20)
(-0.0249177856473428 -0.000238234906930836 -2.36630534422967e-20)
(-0.0231052559596751 -0.000224471130383161 4.74360709696482e-20)
(-0.0214076706441443 -0.000209593979173328 -4.76039053686378e-20)
(-0.0198261378049057 -0.000193862049546499 4.77666480031865e-20)
(-0.0183801749811792 -0.000176679856492234 -2.39333245673738e-20)
(-0.0170629770490253 -0.0001586675439214 -2.40666627841243e-20)
(-0.0159104532199063 -0.000138630601252198 -5.56141817579977e-23)
(-0.014895955377609 -0.000118028650208219 2.41554651076546e-20)
(-0.0140903305807223 -9.44368309635554e-05 0)
(-0.0134198037066266 -7.12629514819612e-05 0)
(-0.013028557338559 -4.33613142081408e-05 0)
(-0.0127374357106677 -1.87051735228527e-05 0)
(-0.0128404015574337 1.41926290695817e-05 4.90313959515181e-20)
(-0.0129369950415196 3.56550949156508e-05 -2.41816718829058e-15)
(-0.0136006234838433 7.21582647996339e-05 -2.38356905206221e-15)
(-0.0140040174848066 6.96382908696017e-05 4.918801941854e-20)
(-0.0151130193143731 -2.097992309574e-05 4.43993463942067e-19)
(-0.0161598213347356 -0.00124037645023156 -4.94359447293418e-20)
(-0.0163503090926627 -0.00256761736684543 4.93273373080488e-20)
(-0.016330837931643 -0.00391124110355548 1.24177997974716e-17)
(-0.0152302577614148 -0.0048960565949975 -4.78641209544184e-20)
(-0.0135126856797044 -0.00546502688539129 -1.19509861940563e-17)
(-0.0108227818630947 -0.00531843791217506 2.32362463746509e-17)
(-0.00745845596814721 -0.00442195347838149 4.38946089978051e-20)
(-0.00323643469007862 -0.00256471119470148 -4.24780842321533e-20)
(0.00182329704599707 0.000375495238838793 6.23937400937611e-20)
(0.00759598614061874 0.00431095406629408 -1.96442221013342e-20)
(0.0140061643089699 0.00910304937051636 1.9378358171096e-17)
(0.0209223453630598 0.0145430571329486 1.8730273569961e-17)
(0.0282818289266115 0.0204392483871775 -1.80796096102327e-17)
(0.035790181189197 0.0264435465848208 -1.75014221155535e-17)
(0.0429541175288369 0.0322051768896764 3.38526306871204e-17)
(0.0497242746282014 0.0378212537281577 8.00233589057404e-21)
(0.0565156921135819 0.0436659159055933 1.57256184768351e-17)
(0.0634021743785851 0.0498536722766739 3.01281492160786e-17)
(0.0710456920535082 0.0569456305393341 1.43771648597983e-17)
(0.0797609850018371 0.0652606980077297 0)
(0.0915046584300472 0.0762127062834368 3.12032548534189e-21)
(0.108371419754847 0.0903449394730611 -1.51762577614421e-21)
(0.130947000012817 0.106693953077351 -1.41162677926156e-21)
(0.16073184660844 0.124538580716558 -1.0775460211328e-17)
(0.200436296236195 0.14268555414763 -4.58327003383197e-22)
(0.251735058640521 0.156575318296425 9.48403266827404e-18)
(0.309229610469769 0.155260003822164 4.44082232694134e-18)
(0.339249283536728 0.119498545514365 4.1885994912009e-18)
(0.297804662858274 0.0630292931589489 -2.02945538366995e-18)
(0.220945005039342 0.0235819787888051 -5.05358419893914e-22)
(0.142503136687794 0.00553307895329651 -1.33820116476551e-19)
(0.0977788392312013 0.00147693594863095 0)
(0.1276972737565 0.00110648468838952 0)
(0.120289275036211 -0.000441032406687341 5.8426354618027e-22)
(0.102501477939138 -0.00506497829313173 1.19180118813064e-18)
(0.0496414664666442 -0.00509515239205961 0)
(0.00214230109942262 0.00267683696726785 0)
(-0.0261557508373453 0.0144738678044663 -9.50853190727486e-18)
(-0.0261770039627574 0.016133901536191 -9.38290449721619e-18)
(-0.0198992099801944 0.0138002278808255 0)
(-0.0152050061888794 0.0115584443674418 9.53852148783214e-18)
(-0.0124047737222579 0.0100310089475906 1.1969949904088e-21)
(-0.0108629676657488 0.00904281414527908 -1.23945347882935e-21)
(-0.00971660197008433 0.00809107360236802 -1.06167068441538e-17)
(-0.00894707567961624 0.00732739875257273 -1.11409386544426e-17)
(-0.00844066652187969 0.00679573777587921 1.16597296309559e-17)
(-0.00814115172953143 0.00646407917805761 1.21613605893798e-17)
(-0.00805536174951221 0.00633626344090822 0)
(-0.00819773262918592 0.00640712154403794 -1.28055533492664e-20)
(-0.0085269923876489 0.00663678734362695 2.65330831079954e-20)
(-0.00899013695324297 0.00696976722275737 9.36935181027106e-24)
(-0.00946768761317549 0.00727009362793848 -1.40871921350444e-20)
(-0.00994354248316013 0.00746952827903285 1.4906745827432e-17)
(-0.0103643588425231 0.00750727986480784 -1.54450041116403e-17)
(-0.0106735123931593 0.00733460513387464 1.6016720701206e-17)
(-0.0108356124791516 0.00693203764949578 1.67179519205641e-17)
(-0.0108564301102315 0.00632387508562262 -3.39245537699409e-20)
(-0.0108336157159217 0.00560894436794218 -2.12655196233811e-23)
(-0.0108479706726329 0.00487931521627628 -1.66474947602384e-15)
(-0.0108478184496558 0.00413296335686633 -1.72364137208631e-15)
(-0.0110757551757518 0.00344863612837562 9.88748050688093e-18)
(-0.0114163710961954 0.00278224471117586 3.95612341040812e-20)
(-0.0126555783760571 0.00221819048987588 5.13087138564216e-18)
(-0.014206825609791 0.00166325482159246 2.57526537361176e-18)
(-0.0193645763759383 0.00140894001960423 3.59420493163486e-19)
(-0.0273319885227731 0.00139380969867642 -3.97109657429842e-20)
(-0.0350055493899442 0.00146233423271252 -1.94883184062263e-15)
(-0.0433057788745923 0.0015075991951947 -1.90880860937214e-15)
(-0.0513956974781758 0.00150473164111012 0)
(-0.0594014112591827 0.00147043023869403 -3.91007072822239e-20)
(-0.0669965506874823 0.00140891807735752 3.89520052104486e-20)
(-0.0741837892311582 0.0013319559090764 0)
(-0.0808607266741007 0.00124575274889361 0)
(-0.0870376087120954 0.00115615545304253 0)
(-0.0927006236387272 0.00106636971464406 0)
(-0.0978716488701674 0.000978412088509603 0)
(-0.102564235756058 0.000893148829444562 0)
(-0.106800607384158 0.0008108073844786 0)
(-0.110597775340536 0.000731239862140469 0)
(-0.113973045432462 0.000654113635814297 1.9458674722953e-20)
(-0.116940067752929 0.000579060649386044 -1.94335849820126e-20)
(-0.119511094076303 0.000505736837809022 0)
(-0.121696200191545 0.000433876573845248 0)
(-0.123504460407036 0.000363299709173912 1.96616863321688e-20)
(-0.124944068084888 0.00029391983049795 7.88091090906e-23)
(-0.126023025122066 0.00022573159875766 -1.97233383989754e-20)
(-0.126749410646556 0.000158801110107188 9.94324646391292e-21)
(-0.127131782939779 9.32529189759714e-05 -9.94328989399028e-21)
(-0.12717938559032 2.92574254555887e-05 0)
(-0.126902295972303 -3.29938157169398e-05 0)
(-0.126311454554766 -9.32860681954945e-05 0)
(-0.125418896037806 -0.000151387673403846 0)
(-0.124237682071811 -0.000207074278987582 -1.02228957652302e-20)
(-0.122781839916536 -0.000260133728467383 1.02268940504196e-20)
(-0.12106629408284 -0.000310370021891543 0)
(-0.11910676497423 -0.000357609063901009 0)
(-0.116919650506326 -0.000401701898428235 -5.2225586798727e-21)
(-0.114521895980514 -0.000442527392295493 5.22761849358124e-21)
(-0.111930855465379 -0.000479993606740468 0)
(-0.109164151693097 -0.000514038277524918 0)
(-0.106239536659247 -0.000544628445623412 0)
(-0.103174758203356 -0.000571759277307179 0)
(-0.0999874337536096 -0.000595452486621434 0)
(-0.0966949348883312 -0.000615753980540227 0)
(-0.0933142837181056 -0.000632731479121679 0)
(-0.0898620623847783 -0.000646471592742215 0)
(-0.0863543365480083 -0.000657076902482185 5.54118023239019e-21)
(-0.082806594517072 -0.000664662806110526 -1.11253843207432e-20)
(-0.079233698240155 -0.000669354627651695 5.58448026552599e-21)
(-0.0756498540313811 -0.000671284245775332 0)
(-0.0720685880004321 -0.00067058765149124 1.1343322949264e-20)
(-0.0685027526487441 -0.000667401121950398 -1.13653720581709e-20)
(-0.0649645159434117 -0.000661860063716632 0)