/*--------------------------------*- C++ -*----------------------------------*\
| =========                 |                                                 |
| \\      /  F ield         | OpenFOAM: The Open Source CFD Toolbox           |
|  \\    /   O peration     | Version:  4.1                                   |
|   \\  /    A nd           | Web:      www.OpenFOAM.org                      |
|    \\/     M anipulation  |                                                 |
\*---------------------------------------------------------------------------*/
FoamFile
{
    version     2.0;
    format      ascii;
    class       volVectorField;
    location    "30000";
    object      wallShearStress;
}
// * * * * * * * * * * * * * * * * * * * * * * * * * * * * * * * * * * * * * //

dimensions      [0 2 -2 0 0 0 0];

internalField   uniform (0 0 0);

boundaryField
{
    bottomWall
    {
        type            calculated;
        value           nonuniform List<vector> 
140
(
(-0.00626588806326757 -9.69628258228142e-06 0)
(-0.00617055707705544 6.4889290214052e-05 1.14794370197489e-41)
(-0.00516759404076171 0.000380498857545937 -1.54499149872967e-22)
(-0.00152911641711072 0.000275720063156623 2.56906431208401e-22)
(0.00102700595501295 -0.000339073990215521 1.29660579250967e-18)
(0.00232947380059053 -0.00113675249726119 0)
(0.00190150848219307 -0.00116552057789007 1.00906358396355e-22)
(0.00134160998163186 -0.000949924210192235 -8.0672179301074e-23)
(0.000989998109462882 -0.000767264559254633 2.65233767820721e-18)
(0.000784174728833513 -0.000642020552377981 -2.6555159249018e-18)
(0.000662690578894227 -0.000555704567560125 3.25145922128539e-22)
(0.000562872943166605 -0.000472137229187804 -5.32286526359161e-18)
(0.000491291788794148 -0.000405239649077386 -6.49942665242859e-22)
(0.000440855108547772 -0.000357553641016887 2.66633133000125e-18)
(0.000405910953306308 -0.00032460863228971 -2.6678455814744e-18)
(0.000385245049906691 -0.000304786071188317 4.21297175334708e-35)
(0.000377953799284306 -0.000296479217167093 2.88889491658085e-34)
(0.000380408065862296 -0.00029659620810978 -2.66763665043607e-18)
(0.000389051364357461 -0.000301865276220659 2.6661721320013e-18)
(0.000396177358660856 -0.000304601071863821 2.60897863795e-21)
(0.000400782751027124 -0.000301767775793579 2.61189268321185e-21)
(0.000400357580209824 -0.000291393141337271 2.66942329284651e-18)
(0.000392809238927522 -0.00027235573369897 5.22594792575853e-21)
(0.000377377138881697 -0.00024499317632083 -2.61326170092952e-21)
(0.00035527544541566 -0.000211398083713961 -1.67014237364831e-34)
(0.000332042668756716 -0.000176695625709279 -1.33945756683317e-18)
(0.000311726530883898 -0.000145050908238212 -1.34511801714239e-18)
(0.000290752286047905 -0.000115271930546846 5.23397180015536e-21)
(0.000279295188495055 -9.06191963076822e-05 5.67058474836671e-35)
(0.000267336299577559 -6.71127138554993e-05 -2.60000542492277e-33)
(0.000288430001153311 -5.00147016111423e-05 5.24137837940395e-21)
(0.000296851489899038 -2.88008536537577e-05 3.32853981932548e-19)
(0.00043398071764907 -1.54839150076202e-05 -1.94260271049945e-16)
(0.000682601487936565 -1.1813642770852e-05 -1.97385478547799e-16)
(0.000912706435502783 -1.29684193246518e-05 2.61932732886171e-21)
(0.00117821040252837 -1.38605413756598e-05 -2.6183170935914e-21)
(0.00144032331803615 -1.45623175141125e-05 2.61998167050022e-21)
(0.00170917886228497 -1.49143062724024e-05 2.08048932663306e-24)
(0.00196904510576262 -1.5050483134922e-05 2.6527120004252e-24)
(0.00222096737757774 -1.49740906236692e-05 -5.24680863148408e-21)
(0.00245918920404565 -1.47715440817354e-05 -3.93248240468205e-24)
(0.00268379665013513 -1.44652556233638e-05 2.62724626299063e-21)
(0.00289319314797058 -1.40985712348214e-05 0)
(0.00308776848689492 -1.36834448890993e-05 -2.64148859988128e-21)
(0.00326743307984362 -1.32356510511379e-05 -6.53852095613882e-24)
(0.00343269161455185 -1.275734434519e-05 5.30064442321525e-21)
(0.00358383406706754 -1.22514569085647e-05 1.97668271325159e-16)
(0.0037212703767251 -1.17161039042595e-05 2.00211943288718e-16)
(0.00384527772752856 -1.11502538743196e-05 -2.66846521096842e-21)
(0.00395612199900593 -1.05519039198091e-05 -2.68637537550784e-21)
(0.00405399087525913 -9.92018987325705e-06 2.68601582273641e-21)
(0.00413904901304523 -9.25471628739927e-06 -1.3530251535685e-21)
(0.00421142988681323 -8.55625359004129e-06 -2.01956483310518e-16)
(0.00427126591542345 -7.82638508511248e-06 -2.04253612490546e-16)
(0.00431869458633807 -7.06762901971221e-06 -1.36378009454454e-21)
(0.00435387544202377 -6.28327393807897e-06 -0)
(0.00437699898888435 -5.47741189489079e-06 -0)
(0.00438829671360093 -4.65468971554226e-06 2.01521182692776e-32)
(0.00438804411436922 -3.82007726521188e-06 -2.02450748048197e-32)
(0.00437656513489008 -2.97893066655656e-06 -0)
(0.0043542335909466 -2.13674341020508e-06 -2.82744159699568e-38)
(0.00432147166565287 -1.29897944206449e-06 7.0724035622307e-22)
(0.00427874777933356 -4.71000318021258e-07 -7.07280071524433e-22)
(0.00422657288737683 3.42044416083007e-07 7.1411251077636e-22)
(0.00416549589665255 1.13529771232037e-06 -7.14172436520077e-22)
(0.00409609839614525 1.90427314614442e-06 2.14950481856972e-16)
(0.00401898880047629 2.64491249262996e-06 1.08833650342124e-17)
(0.00393479627333463 3.35363034192532e-06 -2.06737713430281e-16)
(0.00384416449546077 4.02734380273639e-06 1.82028162439208e-22)
(0.0037477455783701 4.6634859897503e-06 0)
(0.00364619415653626 5.26001142374195e-06 -0)
(0.00354016187454068 5.81538308862433e-06 1.85429690506428e-22)
(0.00343029232070136 6.32855701967711e-06 -1.85459240278255e-22)
(0.0033172164946186 6.79895190918723e-06 -0)
(0.00320154883643463 7.22641716889668e-06 0)
(0.00308388398650363 7.6111896661381e-06 0)
(0.00296479395463271 7.95385725102554e-06 0)
(0.0028448263489144 8.25530167282902e-06 0)
(0.00272450248902209 8.51667153345047e-06 0)
(0.0026043174576466 8.7393007750107e-06 0)
(0.00248473843712628 8.92472209159728e-06 0)
(0.00236620758556546 9.0745187482609e-06 0)
(0.00224913868260332 9.19045668783907e-06 0)
(0.00213392570028897 9.27414630291792e-06 0)
(0.00202093285035654 9.32749800193844e-06 -0)
(0.00191051649328539 9.35186750663677e-06 2.34758766304585e-16)
(0.00180299624765282 9.34935271564877e-06 4.69482740190833e-16)
(0.00169870961282362 9.32060474801687e-06 2.34599112197919e-16)
(0.00159793396404427 9.2682391499427e-06 0)
(0.0015010205159719 9.19136510624277e-06 -3.17280980352044e-21)
(0.00140819551222805 9.09405215648331e-06 3.17325191205155e-21)
(0.00131988355580401 8.97217612269263e-06 3.19081846753288e-21)
(0.00123621985083676 8.83350838865019e-06 -3.1912207357942e-21)
(0.0011578181370437 8.6671441651774e-06 0)
(0.0010846078608887 8.48956692627764e-06 0)
(0.0010176273253226 8.27578537344095e-06 -3.22431738542203e-21)
(0.000956307665750466 8.06181222953526e-06 6.4568345982877e-21)
(0.000902606835503809 7.79311578758392e-06 -3.23248783119696e-21)
(0.000854765899953957 7.54879423883122e-06 3.24751544475722e-21)
(0.000816707214750212 7.21155305132884e-06 -3.24771912409678e-21)
(0.00078392689810293 6.9553810980737e-06 3.26220917367715e-21)
(0.000764480755651939 6.52646254520454e-06 -6.53170463229751e-21)
(0.000747831876290808 6.3080142424329e-06 6.54581286170434e-21)
(0.000750524168926564 5.74546684954984e-06 -3.27638789079409e-21)
(0.000749454277543224 5.7050079336246e-06 0)
(0.00077707295119444 4.98162296018616e-06 3.29667878071041e-21)
(0.000785981161622763 5.81475015086764e-06 6.63852425768324e-24)
(0.00082587799706917 1.26363390577769e-05 -3.30283703513483e-21)
(0.000871646182483438 7.24082179689283e-05 6.63431987585512e-21)
(0.000890600646988345 0.00013885394274802 8.43364629987405e-19)
(0.000916611192577719 0.000209944346076788 4.51389830715758e-35)
(0.000896469428823794 0.00026858035136633 1.70807443039263e-18)
(0.000852003624595361 0.000313310641223075 -7.51375989045606e-35)
(0.000755707488369145 0.000326695092030745 1.72085788390569e-18)
(0.000617765909852666 0.000303956867141251 1.71925225635475e-18)
(0.000419834957691924 0.000227736583744303 3.45205260867517e-18)
(0.000151576847405424 8.19447609880219e-05 -6.92807331912019e-18)
(-0.000187634553459328 -0.000137426442670944 6.01853107621011e-36)
(-0.000598600907995183 -0.000429423538847614 -3.48021857419364e-18)
(-0.00107542381236926 -0.000785974161957101 6.01853107621011e-36)
(-0.00161622556668966 -0.00119802178334754 0)
(-0.0021996797329456 -0.00164180815645964 3.48378220394868e-18)
(-0.00278812877823849 -0.00209187352778922 3.40430060860271e-21)
(-0.003383415086416 -0.00255994936023029 9.99170198198944e-38)
(-0.00402831027073606 -0.00308178176732132 8.3570301503772e-39)
(-0.00473211284129826 -0.00367201860281661 -1.66261920980304e-34)
(-0.00557031682466465 -0.00439189668528621 6.26303390118115e-35)
(-0.00658209982981941 -0.00528472407840378 -2.75476976094298e-22)
(-0.00799249805239364 -0.00651511351666918 3.39292295040168e-18)
(-0.0100149177508537 -0.00814374232109187 -3.34633013690763e-18)
(-0.0126885362031382 -0.0100592124430121 -6.01853107621011e-36)
(-0.0161620870307247 -0.0121681984506039 8.91298426969288e-22)
(-0.0206852837574201 -0.0143031643467766 -9.0414409517928e-23)
(-0.0262596813591572 -0.0158737065279489 -2.86281017888995e-18)
(-0.0318847941821823 -0.0155528410581634 2.63206493246242e-18)
(-0.0331297932771894 -0.0112975963415542 1.42772252876174e-22)
(-0.0263415832763724 -0.00533258512547192 -5.66964176352853e-19)
(-0.0177908283552969 -0.00170213011063867 2.86899611163176e-19)
(-0.0103273285663709 -0.000260928425513725 -7.05946848864793e-23)
(-0.00675964880034111 -3.4914680668234e-05 0)
)
;
    }
    topWall
    {
        type            calculated;
        value           nonuniform List<vector> 
140
(
(-0.00964791999649491 -2.21652890254392e-08 0)
(-0.00964745442960158 2.47600493762978e-07 0)
(-0.00963727022416169 5.05659813939725e-07 0)
(-0.00961780220300166 7.50358443748723e-07 0)
(-0.00958954128941863 9.80383792845323e-07 0)
(-0.00955302227069523 1.1947721345367e-06 0)
(-0.00950881121732967 1.39291481460669e-06 0)
(-0.00945749296350479 1.57453553626095e-06 0)
(-0.00939965968067527 1.73965651339426e-06 0)
(-0.00933590063941222 1.88856072565535e-06 0)
(-0.00926679327853117 2.02175445999378e-06 0)
(-0.0091928955998572 2.13992786863869e-06 0)
(-0.00911473995012968 2.24391598895271e-06 0)
(-0.0090328281996581 2.33465985288588e-06 0)
(-0.00894762825405514 2.41317143286223e-06 0)
(-0.00885957179313343 2.48050073049194e-06 0)
(-0.00876905313635802 2.53770779826587e-06 0)
(-0.00867642906042565 2.58583841954836e-06 0)
(-0.00858201944926432 2.62590434218157e-06 0)
(-0.00848610860508038 2.65886745351527e-06 0)
(-0.00838894709892848 2.68562750988861e-06 0)
(-0.0082907540326299 2.70701318646051e-06 0)
(-0.00819171959874855 2.72377610038854e-06 0)
(-0.00809200783680108 2.73658734928121e-06 0)
(-0.00799175950150088 2.74603615077451e-06 0)
(-0.00789109497054637 2.75263025366465e-06 0)
(-0.00779011713197503 2.7567977902745e-06 0)
(-0.00768891420084992 2.75889031621798e-06 0)
(-0.00758756242503295 2.75918678443719e-06 0)
(-0.00748612864658208 2.75789829310173e-06 0)
(-0.0073846726925521 2.75517339670141e-06 0)
(-0.00728324957450228 2.75110388535762e-06 0)
(-0.0071819114804983 2.74573086099679e-06 0)
(-0.00708070954908722 2.73905102562973e-06 0)
(-0.00697969541739378 2.73102304665921e-06 0)
(-0.0068789225414919 2.72157387975681e-06 0)
(-0.00677844729067175 2.71060494521702e-06 0)
(-0.00667832982166959 2.69799802639682e-06 0)
(-0.00657863474370497 2.68362080021779e-06 0)
(-0.00647943158763912 2.66733194258657e-06 0)
(-0.00638079509467857 2.64898576372055e-06 0)
(-0.00628280534154226 2.62843634890861e-06 0)
(-0.00618554771956106 2.60554120559712e-06 0)
(-0.00608911278529638 2.58016441587951e-06 0)
(-0.00599359600011274 2.55217931006663e-06 0)
(-0.00589909737562611 2.52147068097019e-06 0)
(-0.00580572104134166 2.48793655885176e-06 0)
(-0.0057135747500331 2.45148957241191e-06 0)
(-0.00562276933555935 2.41205792232312e-06 0)
(-0.00553341813693222 2.36958599448105e-06 0)
(-0.00544563640146328 2.32403464163792e-06 0)
(-0.00535954067884137 2.27538116286171e-06 0)
(-0.00527524821694237 2.22361901238679e-06 0)
(-0.00519287636913758 2.16875726267006e-06 0)
(-0.00511254202176596 2.11081986121244e-06 0)
(-0.00503436104936889 2.04984470245807e-06 0)
(-0.00495844780420151 1.98588255107209e-06 0)
(-0.00488491464544214 1.91899584251416e-06 0)
(-0.00481387151248984 1.84925739086642e-06 0)
(-0.00474542554568564 1.77674903363678e-06 0)
(-0.00467968075684114 1.70156023094347e-06 0)
(-0.00461673775099638 1.62378665695468e-06 0)
(-0.00455669349997355 1.54352879072778e-06 0)
(-0.00449964116748679 1.46089053950559e-06 0)
(-0.00444566998484644 1.37597790033289e-06 0)
(-0.00439486517563512 1.28889768978198e-06 0)
(-0.00434730792720324 1.19975633662877e-06 0)
(-0.0043030754063172 1.10865876636468e-06 0)
(-0.0042622408159544 1.01570737220755e-06 0)
(-0.00422487348983748 9.21001086987354e-07 0)
(-0.00419103902124933 8.2463455586699e-07 0)
(-0.00416079942213677 7.26697414340042e-07 0)
(-0.00413421330910452 6.27273673023136e-07 0)
(-0.00411133611150751 5.2644120714585e-07 0)
(-0.00409222029944267 4.24271355287164e-07 0)
(-0.00407691562420604 3.20828600108393e-07 0)
(-0.00406546937539728 2.16170406834252e-07 0)
(-0.00405792663267769 1.10346940482824e-07 0)
(-0.00405433055605833 3.40105956181704e-09 0)
(-0.00405472262074416 -1.04630432183285e-07 0)
(-0.0040591428668048 -2.1371671229058e-07 0)
(-0.00406763011716767 -3.23832784671986e-07 0)
(-0.00408022221676907 -4.34963524779941e-07 0)
(-0.00409695642672734 -5.47104181617106e-07 0)
(-0.00411786968936526 -6.60248808261792e-07 0)
(-0.00414299843739218 -7.74387823956425e-07 0)
(-0.00417237858722295 -8.89513316384047e-07 0)
(-0.0042060456768873 -1.00562065237357e-06 0)
(-0.00424403496841333 -1.12270642650115e-06 0)
(-0.00428638145607262 -1.24076615412176e-06 0)
(-0.00433311979728319 -1.35979172631392e-06 0)
(-0.00438428414093098 -1.47976888629913e-06 0)
(-0.00443990787903934 -1.60067477042385e-06 0)
(-0.00450002328905585 -1.72247469245756e-06 0)
(-0.00456466106667181 -1.84511925671933e-06 0)
(-0.00463384974661823 -1.96854065997751e-06 0)
(-0.00470761497984699 -2.09264886228726e-06 0)
(-0.00478597867304497 -2.21732743019535e-06 0)
(-0.00486895796993929 -2.3424290445667e-06 0)
(-0.00495656406741552 -2.46777067604832e-06 0)
(-0.00504880085155238 -2.59312837938604e-06 0)
(-0.00514566334130901 -2.71823179023647e-06 0)
(-0.00524713593165538 -2.84275841726118e-06 0)
(-0.00535319042898273 -2.96632777886728e-06 0)
(-0.00546378387639669 -3.08849555453535e-06 0)
(-0.00557885617115257 -3.20874787349056e-06 0)
(-0.00569832748294457 -3.32649598577043e-06 0)
(-0.00582209549035729 -3.44107152631391e-06 0)
(-0.00595003246083024 -3.55172268335948e-06 0)
(-0.00608198221193866 -3.65761157860666e-06 0)
(-0.0062177570017156 -3.75781319081404e-06 0)
(-0.00635713440891485 -3.8513161967261e-06 0)
(-0.00649985427689597 -3.93702608247079e-06 0)
(-0.0066456158071081 -4.01377090836788e-06 0)
(-0.00679407490263666 -4.08031014241529e-06 0)
(-0.00694484187663988 -4.1353469653293e-06 0)
(-0.00709747965439196 -4.17754441561471e-06 0)
(-0.0072515026100711 -4.20554569190196e-06 0)
(-0.00740637618908578 -4.21799880664972e-06 0)
(-0.00756151747169025 -4.21358563237605e-06 0)
(-0.00771629683218617 -4.19105516399618e-06 0)
(-0.00787004083836423 -4.14926055056409e-06 0)
(-0.00802203651596557 -4.08719914109672e-06 0)
(-0.008171537071272 -4.00405442186002e-06 0)
(-0.00831776912057871 -3.89923836886494e-06 0)
(-0.0084599414182303 -3.77243238098306e-06 0)
(-0.00859725500541859 -3.62362466544778e-06 0)
(-0.00872891462463693 -3.45314175440384e-06 0)
(-0.00885414115906017 -3.26167175936147e-06 0)
(-0.00897218477626895 -3.05027713660149e-06 0)
(-0.00908233837399848 -2.82039499756857e-06 0)
(-0.0091839508724413 -2.57382368279638e-06 0)
(-0.00927643984593692 -2.31269478865594e-06 0)
(-0.0093593029891872 -2.03943128030103e-06 0)
(-0.00943212792677064 -1.75669210441919e-06 0)
(-0.0094945999027706 -1.46730713776658e-06 0)
(-0.00954650710982667 -1.17420236384919e-06 0)
(-0.00958774312659263 -8.80323218315845e-07 0)
(-0.00961830700269253 -5.88558674647093e-07 0)
(-0.00963830000402558 -3.01653382657077e-07 0)
)
;
    }
    inlet_half0
    {
        type            cyclic;
    }
    inlet_half1
    {
        type            cyclic;
    }
    outlet_half0
    {
        type            cyclic;
    }
    outlet_half1
    {
        type            cyclic;
    }
    sideRight_half0
    {
        type            empty;
    }
    sideRight_half1
    {
        type            empty;
    }
    sideLeft_half0
    {
        type            empty;
    }
    sideLeft_half1
    {
        type            empty;
    }
}


// ************************************************************************* //
